# Forces      
# CofR        : (0.0000000e+00 0.0000000e+00 0.0000000e+00)
# Time        forces(pressure viscous porous) moment(pressure viscous porous)
0.1           	((-1.2880341e+01 -1.1649708e+01 -3.5512480e-02) (-7.1584120e-06 -9.4218653e-06 -9.3260802e-05) (0.0000000e+00 0.0000000e+00 0.0000000e+00)) ((6.9713600e-01 -7.6744645e-01 -7.1756359e-03) (-7.2830149e-06 7.5958336e-06 -9.0032975e-09) (0.0000000e+00 0.0000000e+00 0.0000000e+00))
0.2           	((-1.2886152e+01 -1.1654309e+01 -1.1100750e-01) (1.2509434e-05 1.1498782e-05 -1.4773512e-04) (0.0000000e+00 0.0000000e+00 0.0000000e+00)) ((6.9153113e-01 -7.6142058e-01 -7.1866557e-03) (-1.3559557e-05 1.3659305e-05 -3.1949741e-07) (0.0000000e+00 0.0000000e+00 0.0000000e+00))
0.3           	((-1.2887344e+01 -1.1656008e+01 -8.4152831e-02) (2.1267599e-05 1.9516692e-05 -1.9047465e-04) (0.0000000e+00 0.0000000e+00 0.0000000e+00)) ((6.9365438e-01 -7.6382586e-01 -7.1909048e-03) (-1.7730765e-05 1.7993345e-05 -3.7624015e-07) (0.0000000e+00 0.0000000e+00 0.0000000e+00))
