# Forces      
# CofR        : (0.0000000e+00 0.0000000e+00 0.0000000e+00)
# Time        forces(pressure viscous porous) moment(pressure viscous porous)
0.002         	((-1.2875450e+01 -1.1644517e+01 -1.1110224e-03) (2.2155250e-08 5.7079921e-07 2.2255253e-07) (0.0000000e+00 0.0000000e+00 0.0000000e+00)) ((6.9990998e-01 -7.7001157e-01 -7.1702712e-03) (-3.4387886e-08 -1.2766987e-08 4.6361855e-08) (0.0000000e+00 0.0000000e+00 0.0000000e+00))
0.004         	((-1.2874675e+01 -1.1642573e+01 2.0332911e-03) (4.0811456e-07 2.5894008e-06 -2.6075058e-07) (0.0000000e+00 0.0000000e+00 0.0000000e+00)) ((7.0020361e-01 -7.7019652e-01 -7.0981617e-03) (-1.9964478e-07 8.3023243e-08 1.7900368e-07) (0.0000000e+00 0.0000000e+00 0.0000000e+00))
0.006         	((-1.2876348e+01 -1.1646410e+01 7.9212205e-05) (8.3210962e-07 1.7539814e-06 1.7072326e-07) (0.0000000e+00 0.0000000e+00 0.0000000e+00)) ((6.9986952e-01 -7.7021143e-01 -7.2610885e-03) (-9.1676305e-08 5.0617434e-08 6.6825859e-08) (0.0000000e+00 0.0000000e+00 0.0000000e+00))
