# Forces      
# CofR        : (0.0000000e+00 0.0000000e+00 0.0000000e+00)
# Time        forces(pressure viscous porous) moment(pressure viscous porous)
0.1           	((1.1751605e+00 -6.0085208e+03 2.6927608e-04) (-1.9296023e-06 2.8577313e-05 -4.4684561e-04) (0.0000000e+00 0.0000000e+00 0.0000000e+00)) ((2.4244621e+02 5.7638591e-01 4.8011670e-04) (-1.0466039e-05 6.0766678e-07 4.3031046e-09) (0.0000000e+00 0.0000000e+00 0.0000000e+00))
0.2           	((1.1852846e+00 -6.0125677e+03 2.6952010e-04) (-1.7127375e-06 2.6873969e-05 -2.0593645e-04) (0.0000000e+00 0.0000000e+00 0.0000000e+00)) ((2.4090943e+02 5.4376146e-01 4.8810671e-04) (-1.4242803e-05 -8.5585730e-07 4.5187205e-08) (0.0000000e+00 0.0000000e+00 0.0000000e+00))
0.3           	((1.3211008e+00 -6.0070717e+03 2.6953293e-04) (nan nan nan) (0.0000000e+00 0.0000000e+00 0.0000000e+00)) ((2.4218982e+02 4.8961847e-01 1.0964036e-03) (nan nan nan) (0.0000000e+00 0.0000000e+00 0.0000000e+00))
