# Forces      
# CofR        : (0.0000000e+00 0.0000000e+00 0.0000000e+00)
# Time        forces(pressure viscous porous) moment(pressure viscous porous)
0.002         	((1.0248189e+00 -6.0182375e+03 2.6924741e-04) (-7.1044830e-07 4.9563387e-04 -2.7939724e-03) (0.0000000e+00 0.0000000e+00 0.0000000e+00)) ((2.5813536e+02 6.3232445e-01 5.7723715e-04) (-4.1513525e-04 -2.3315006e-09 1.7709735e-10) (0.0000000e+00 0.0000000e+00 0.0000000e+00))
0.004         	((2.6778416e-01 -6.0514737e+03 2.6923243e-04) (-6.9864030e-06 5.9755285e-04 -4.7268362e-03) (0.0000000e+00 0.0000000e+00 0.0000000e+00)) ((2.6975705e+02 9.0756195e-01 3.2221696e-04) (-4.9254642e-04 -7.0273595e-07 1.1872145e-08) (0.0000000e+00 0.0000000e+00 0.0000000e+00))
0.006         	((4.2678492e+00 -6.0577642e+03 2.6910938e-04) (nan nan nan) (0.0000000e+00 0.0000000e+00 0.0000000e+00)) ((2.8706447e+02 -6.3528478e-01 2.6412219e-03) (nan nan nan) (0.0000000e+00 0.0000000e+00 0.0000000e+00))
