# Forces      
# CofR        : (0.0000000e+00 0.0000000e+00 0.0000000e+00)
# Time        forces(pressure viscous porous) moment(pressure viscous porous)
0.1           	((1.1694739e+01 -1.3032906e+01 -2.6853761e-02) (1.4069776e-05 -1.0081650e-05 -8.1495835e-05) (0.0000000e+00 0.0000000e+00 0.0000000e+00)) ((2.1619496e-01 1.9757171e-01 6.6965320e-03) (-6.7969276e-06 -6.6925218e-06 -3.7751651e-07) (0.0000000e+00 0.0000000e+00 0.0000000e+00))
0.2           	((1.1698988e+01 -1.3039406e+01 -1.2792250e-01) (-3.0150253e-06 1.9927821e-06 -1.4390530e-04) (0.0000000e+00 0.0000000e+00 0.0000000e+00)) ((2.0816431e-01 1.8932426e-01 6.8451303e-03) (-1.2823768e-05 -1.2445185e-05 -2.1616066e-08) (0.0000000e+00 0.0000000e+00 0.0000000e+00))
0.3           	((1.1699322e+01 -1.3038822e+01 -7.6695137e-02) (-9.1368293e-06 7.6803226e-06 -1.9061736e-04) (0.0000000e+00 0.0000000e+00 0.0000000e+00)) ((2.1227167e-01 1.9365903e-01 6.7415632e-03) (-1.7020172e-05 -1.6665581e-05 -2.1289757e-08) (0.0000000e+00 0.0000000e+00 0.0000000e+00))
