# Forces      
# CofR        : (0.0000000e+00 0.0000000e+00 0.0000000e+00)
# Time        forces(pressure viscous porous) moment(pressure viscous porous)
0.002         	((1.1691921e+01 -1.3030836e+01 -4.2335969e-03) (-9.3690170e-08 2.3855092e-07 2.6427265e-07) (0.0000000e+00 0.0000000e+00 0.0000000e+00)) ((2.1824536e-01 1.9939369e-01 6.7345399e-03) (1.2329101e-08 2.8205627e-08 -1.8170586e-08) (0.0000000e+00 0.0000000e+00 0.0000000e+00))
0.004         	((1.1690317e+01 -1.3029631e+01 -4.9832547e-03) (-9.2655948e-07 1.5009804e-06 -5.5609789e-07) (0.0000000e+00 0.0000000e+00 0.0000000e+00)) ((2.1821897e-01 1.9936900e-01 6.7530057e-03) (-8.9989307e-08 -7.1365114e-08 -8.1220036e-08) (0.0000000e+00 0.0000000e+00 0.0000000e+00))
0.006         	((1.1692277e+01 -1.3030284e+01 2.5271863e-03) (-7.6205335e-07 1.2774746e-06 -8.4134965e-07) (0.0000000e+00 0.0000000e+00 0.0000000e+00)) ((2.1864142e-01 2.0003616e-01 6.6666305e-03) (-8.4121992e-08 -9.3751805e-08 -7.1271204e-08) (0.0000000e+00 0.0000000e+00 0.0000000e+00))
