# Residuals   
# Time        	p             	Ux            	Uy            	Uz            
0.1           	1.0000000e+00	1.0000000e+00	1.0000000e+00	1.0000000e+00
0.2           	8.3949460e-01	1.9415240e-01	2.0220030e-01	3.1738180e-01
0.3           	6.6057910e-01	2.3144210e-01	2.2063920e-01	4.3441850e-01
