# Residuals   
# Time        	p             	Ux            	Uy            	Uz            
0.002         	1.0000000e+00	1.0000000e+00	1.0000000e+00	1.0000000e+00
0.004         	3.0058860e-01	4.2325300e-01	4.2171270e-01	1.5543210e-01
0.006         	1.9554550e-01	2.7056170e-01	2.4867370e-01	1.0806730e-01
