# Forces      
# CofR        : (0.0000000e+00 0.0000000e+00 0.0000000e+00)
# Time        forces(pressure viscous porous) moment(pressure viscous porous)
1             	((-2.9368533e+01 -2.5696372e+01 -1.0196273e+02) (1.4505162e-04 1.0808509e-04 -6.2937379e-03) (0.0000000e+00 0.0000000e+00 0.0000000e+00)) ((-6.9130966e+00 6.7093641e+00 2.0581645e-02) (-5.7457385e-04 5.8330802e-04 -4.4476747e-06) (0.0000000e+00 0.0000000e+00 0.0000000e+00))
2             	((-3.2682638e+01 -2.8705392e+01 -4.7020612e+01) (2.0711863e-04 1.4760052e-04 -3.4105123e-03) (0.0000000e+00 0.0000000e+00 0.0000000e+00)) ((-1.9620265e+00 1.6908879e+00 3.8532895e-02) (-2.9901605e-04 3.1074433e-04 -6.6180297e-06) (0.0000000e+00 0.0000000e+00 0.0000000e+00))
3             	((-3.4487561e+01 -3.0650080e+01 1.0105426e+01) (3.2532181e-04 2.6924711e-04 -3.1397115e-03) (0.0000000e+00 0.0000000e+00 0.0000000e+00)) ((3.0021522e+00 -3.2814380e+00 1.7721357e-02) (-2.9245996e-04 3.0441218e-04 -6.0696429e-06) (0.0000000e+00 0.0000000e+00 0.0000000e+00))
4             	((-3.4090933e+01 -3.0433260e+01 1.4840041e+01) (3.6746437e-04 3.0419902e-04 -3.3810765e-03) (0.0000000e+00 0.0000000e+00 0.0000000e+00)) ((3.3604252e+00 -3.6125386e+00 9.6889290e-04) (-3.2197201e-04 3.3426801e-04 -6.6657908e-06) (0.0000000e+00 0.0000000e+00 0.0000000e+00))
5             	((-3.3395871e+01 -2.9784133e+01 -6.7419364e-01) (3.4983582e-04 2.6644386e-04 -3.4870358e-03) (0.0000000e+00 0.0000000e+00 0.0000000e+00)) ((1.9875097e+00 -2.2252284e+00 -6.3290376e-04) (-3.2957001e-04 3.4257489e-04 -9.0444695e-06) (0.0000000e+00 0.0000000e+00 0.0000000e+00))
6             	((-3.3306251e+01 -2.9652710e+01 -7.5984980e+00) (3.0866666e-04 2.1648013e-04 -3.2851128e-03) (0.0000000e+00 0.0000000e+00 0.0000000e+00)) ((1.3947668e+00 -1.6359367e+00 4.0902942e-03) (-3.0586083e-04 3.1955235e-04 -1.0197305e-05) (0.0000000e+00 0.0000000e+00 0.0000000e+00))
7             	((-3.3423728e+01 -2.9742107e+01 -5.9330138e+00) (2.5858345e-04 1.7338476e-04 -2.9572987e-03) (0.0000000e+00 0.0000000e+00 0.0000000e+00)) ((1.5443641e+00 -1.7919199e+00 6.3211207e-03) (-2.7167318e-04 2.8540661e-04 -9.4701894e-06) (0.0000000e+00 0.0000000e+00 0.0000000e+00))
8             	((-3.3449662e+01 -2.9770563e+01 -3.4582259e+00) (2.1029029e-04 1.3455423e-04 -2.6267934e-03) (0.0000000e+00 0.0000000e+00 0.0000000e+00)) ((1.7542312e+00 -2.0031832e+00 5.7205611e-03) (-2.3881834e-04 2.5231462e-04 -8.2536576e-06) (0.0000000e+00 0.0000000e+00 0.0000000e+00))
9             	((-3.3403601e+01 -2.9737314e+01 -3.1031658e+00) (1.6616846e-04 1.0308739e-04 -2.3438598e-03) (0.0000000e+00 0.0000000e+00 0.0000000e+00)) ((1.7803683e+00 -2.0273197e+00 4.4738741e-03) (-2.1170122e-04 2.2427754e-04 -6.9327794e-06) (0.0000000e+00 0.0000000e+00 0.0000000e+00))
10            	((-3.3366913e+01 -2.9710476e+01 -3.6800827e+00) (1.3097285e-04 7.7221203e-05 -2.0968950e-03) (0.0000000e+00 0.0000000e+00 0.0000000e+00)) ((1.7296230e+00 -1.9743797e+00 3.6830868e-03) (-1.8857921e-04 2.0001973e-04 -6.1396378e-06) (0.0000000e+00 0.0000000e+00 0.0000000e+00))
11            	((-3.3344332e+01 -2.9699011e+01 -4.0719089e+00) (9.8299864e-05 5.9922661e-05 -1.8668315e-03) (0.0000000e+00 0.0000000e+00 0.0000000e+00)) ((1.6957506e+00 -1.9398128e+00 2.8992059e-03) (-1.6742297e-04 1.7745496e-04 -4.8346250e-06) (0.0000000e+00 0.0000000e+00 0.0000000e+00))
12            	((-3.3325707e+01 -2.9690660e+01 -4.0740409e+00) (6.7826025e-05 4.3647266e-05 -1.6501640e-03) (0.0000000e+00 0.0000000e+00 0.0000000e+00)) ((1.6948219e+00 -1.9389238e+00 2.1008642e-03) (-1.4740522e-04 1.5645817e-04 -3.4026853e-06) (0.0000000e+00 0.0000000e+00 0.0000000e+00))
13            	((-3.3301536e+01 -2.9677837e+01 -4.0477005e+00) (3.4466414e-05 3.0735020e-05 -1.4511514e-03) (0.0000000e+00 0.0000000e+00 0.0000000e+00)) ((1.6959959e+00 -1.9402453e+00 1.1417533e-03) (-1.2915069e-04 1.3689394e-04 -1.3709072e-06) (0.0000000e+00 0.0000000e+00 0.0000000e+00))
14            	((-3.3274441e+01 -2.9662406e+01 -4.0315666e+00) (-6.2306704e-06 1.9405590e-05 -1.2734195e-03) (0.0000000e+00 0.0000000e+00 0.0000000e+00)) ((1.6966706e+00 -1.9398354e+00 1.5120144e-04) (-1.1273336e-04 1.1848238e-04 1.3346357e-06) (0.0000000e+00 0.0000000e+00 0.0000000e+00))
15            	((-3.3245610e+01 -2.9647661e+01 -4.0678894e+00) (-4.9694588e-05 7.3510771e-06 -1.1204208e-03) (0.0000000e+00 0.0000000e+00 0.0000000e+00)) ((1.6931257e+00 -1.9350321e+00 -9.8894865e-04) (-9.8430550e-05 1.0208936e-04 4.0920371e-06) (0.0000000e+00 0.0000000e+00 0.0000000e+00))
16            	((-3.3214463e+01 -2.9630681e+01 -4.1149672e+00) (-9.3581603e-05 -4.2119697e-06 -9.8268443e-04) (0.0000000e+00 0.0000000e+00 0.0000000e+00)) ((1.6882160e+00 -1.9296289e+00 -2.1340543e-03) (-8.5244139e-05 8.7003772e-05 6.8265610e-06) (0.0000000e+00 0.0000000e+00 0.0000000e+00))
17            	((-3.3182250e+01 -2.9612656e+01 -4.1509902e+00) (-1.3250633e-04 -1.6491684e-05 -8.5645600e-04) (0.0000000e+00 0.0000000e+00 0.0000000e+00)) ((1.6839721e+00 -1.9253600e+00 -3.2985434e-03) (-7.3032681e-05 7.3362229e-05 9.2132029e-06) (0.0000000e+00 0.0000000e+00 0.0000000e+00))
18            	((-3.3156283e+01 -2.9597192e+01 -4.1914880e+00) (-1.7014612e-04 -2.8844944e-05 -7.4668282e-04) (0.0000000e+00 0.0000000e+00 0.0000000e+00)) ((1.6796115e+00 -1.9210557e+00 -4.0654438e-03) (-6.2343457e-05 6.1037042e-05 1.1428393e-05) (0.0000000e+00 0.0000000e+00 0.0000000e+00))
19            	((-3.3135572e+01 -2.9583609e+01 -4.2148547e+00) (-2.0586175e-04 -4.2267305e-05 -6.3632509e-04) (0.0000000e+00 0.0000000e+00 0.0000000e+00)) ((1.6771190e+00 -1.9178708e+00 -4.5019902e-03) (-5.1416543e-05 4.8488670e-05 1.3393113e-05) (0.0000000e+00 0.0000000e+00 0.0000000e+00))
20            	((-3.3114311e+01 -2.9570223e+01 -4.2210633e+00) (-2.3924896e-04 -5.8797241e-05 -5.2813301e-04) (0.0000000e+00 0.0000000e+00 0.0000000e+00)) ((1.6765579e+00 -1.9158149e+00 -5.1117460e-03) (-4.0654649e-05 3.6203272e-05 1.4883942e-05) (0.0000000e+00 0.0000000e+00 0.0000000e+00))
21            	((-3.3096069e+01 -2.9553970e+01 -4.1962307e+00) (-2.7033007e-04 -7.7471578e-05 -4.1619739e-04) (0.0000000e+00 0.0000000e+00 0.0000000e+00)) ((1.6786951e+00 -1.9165008e+00 -5.3448689e-03) (-2.9949107e-05 2.3539096e-05 1.5927986e-05) (0.0000000e+00 0.0000000e+00 0.0000000e+00))
22            	((-3.3072015e+01 -2.9544549e+01 -4.1442209e+00) (-2.9578884e-04 -9.8915399e-05 -3.1359185e-04) (0.0000000e+00 0.0000000e+00 0.0000000e+00)) ((1.6829310e+00 -1.9196482e+00 -6.5398892e-03) (-1.9642684e-05 1.2287790e-05 1.6349210e-05) (0.0000000e+00 0.0000000e+00 0.0000000e+00))
23            	((-3.3046126e+01 -2.9536617e+01 -4.0757752e+00) (-3.1654519e-04 -1.2086109e-04 -2.1704396e-04) (0.0000000e+00 0.0000000e+00 0.0000000e+00)) ((1.6880909e+00 -1.9243002e+00 -7.9319278e-03) (-9.9528801e-06 1.8243620e-06 1.6499712e-05) (0.0000000e+00 0.0000000e+00 0.0000000e+00))
24            	((-3.3026513e+01 -2.9522889e+01 -4.0123661e+00) (-3.3365354e-04 -1.4362044e-04 -1.3011301e-04) (0.0000000e+00 0.0000000e+00 0.0000000e+00)) ((1.6927536e+00 -1.9285489e+00 -8.4598901e-03) (-1.2533500e-06 -7.8059107e-06 1.6345720e-05) (0.0000000e+00 0.0000000e+00 0.0000000e+00))
25            	((-3.3013698e+01 -2.9506766e+01 -3.9484095e+00) (-3.4642289e-04 -1.6675106e-04 -5.4632848e-05) (0.0000000e+00 0.0000000e+00 0.0000000e+00)) ((1.6976880e+00 -1.9327451e+00 -8.3430021e-03) (6.4536223e-06 -1.6258622e-05 1.5797152e-05) (0.0000000e+00 0.0000000e+00 0.0000000e+00))
26            	((-3.3001511e+01 -2.9494952e+01 -3.8827384e+00) (-3.5645499e-04 -1.8898179e-04 1.3999360e-05) (0.0000000e+00 0.0000000e+00 0.0000000e+00)) ((1.7029282e+00 -1.9372224e+00 -8.4636520e-03) (1.3699399e-05 -2.4012397e-05 1.5121935e-05) (0.0000000e+00 0.0000000e+00 0.0000000e+00))
27            	((-3.2989397e+01 -2.9485623e+01 -3.8177271e+00) (-3.6472143e-04 -2.1051785e-04 7.7748665e-05) (0.0000000e+00 0.0000000e+00 0.0000000e+00)) ((1.7080108e+00 -1.9418701e+00 -8.7142971e-03) (2.0622744e-05 -3.1303508e-05 1.4350991e-05) (0.0000000e+00 0.0000000e+00 0.0000000e+00))
28            	((-3.2978279e+01 -2.9476750e+01 -3.7570673e+00) (-3.6964075e-04 -2.3073049e-04 1.3842453e-04) (0.0000000e+00 0.0000000e+00 0.0000000e+00)) ((1.7127168e+00 -1.9462598e+00 -8.8847429e-03) (2.7391153e-05 -3.8179483e-05 1.3485138e-05) (0.0000000e+00 0.0000000e+00 0.0000000e+00))
29            	((-3.2969348e+01 -2.9468317e+01 -3.7010034e+00) (-3.7253406e-04 -2.4799803e-04 1.9827600e-04) (0.0000000e+00 0.0000000e+00 0.0000000e+00)) ((1.7171484e+00 -1.9503275e+00 -8.8946445e-03) (3.4161177e-05 -4.4919052e-05 1.2706330e-05) (0.0000000e+00 0.0000000e+00 0.0000000e+00))
30            	((-3.2961281e+01 -2.9459995e+01 -3.6440940e+00) (-3.7559598e-04 -2.6182461e-04 2.5609264e-04) (0.0000000e+00 0.0000000e+00 0.0000000e+00)) ((1.7217391e+00 -1.9544003e+00 -8.8485345e-03) (4.0855870e-05 -5.1605227e-05 1.2247688e-05) (0.0000000e+00 0.0000000e+00 0.0000000e+00))
31            	((-3.2953032e+01 -2.9451477e+01 -3.5849546e+00) (-3.7561333e-04 -2.7628729e-04 3.1602770e-04) (0.0000000e+00 0.0000000e+00 0.0000000e+00)) ((1.7264455e+00 -1.9586373e+00 -8.8341930e-03) (4.7963391e-05 -5.8356226e-05 1.1514455e-05) (0.0000000e+00 0.0000000e+00 0.0000000e+00))
32            	((-3.2945139e+01 -2.9442672e+01 -3.5244775e+00) (-3.7048026e-04 -2.9269679e-04 3.7993672e-04) (0.0000000e+00 0.0000000e+00 0.0000000e+00)) ((1.7311446e+00 -1.9630165e+00 -8.7598844e-03) (5.5496624e-05 -6.5204816e-05 1.0273979e-05) (0.0000000e+00 0.0000000e+00 0.0000000e+00))
33            	((-3.2937636e+01 -2.9433680e+01 -3.4749548e+00) (-3.6274422e-04 -3.0289419e-04 4.4692094e-04) (0.0000000e+00 0.0000000e+00 0.0000000e+00)) ((1.7349952e+00 -1.9665055e+00 -8.6242840e-03) (6.2827006e-05 -7.2141733e-05 9.3279253e-06) (0.0000000e+00 0.0000000e+00 0.0000000e+00))
34            	((-3.2930764e+01 -2.9425838e+01 -3.4301607e+00) (-3.4981535e-04 -3.0861074e-04 5.1426926e-04) (0.0000000e+00 0.0000000e+00 0.0000000e+00)) ((1.7384490e+00 -1.9696737e+00 -8.5394685e-03) (6.9905441e-05 -7.8714779e-05 8.3597608e-06) (0.0000000e+00 0.0000000e+00 0.0000000e+00))
35            	((-3.2925027e+01 -2.9418670e+01 -3.3841466e+00) (-3.3547954e-04 -3.1070755e-04 5.7935608e-04) (0.0000000e+00 0.0000000e+00 0.0000000e+00)) ((1.7418677e+00 -1.9730610e+00 -8.4353111e-03) (7.6664061e-05 -8.4926007e-05 7.5791834e-06) (0.0000000e+00 0.0000000e+00 0.0000000e+00))
36            	((-3.2920149e+01 -2.9411265e+01 -3.3387593e+00) (-3.2081771e-04 -3.0897499e-04 6.4266466e-04) (0.0000000e+00 0.0000000e+00 0.0000000e+00)) ((1.7451716e+00 -1.9764360e+00 -8.2514882e-03) (8.3074762e-05 -9.0851837e-05 7.0384341e-06) (0.0000000e+00 0.0000000e+00 0.0000000e+00))
37            	((-3.2916003e+01 -2.9403353e+01 -3.2999448e+00) (-3.0441672e-04 -3.0618733e-04 7.0403560e-04) (0.0000000e+00 0.0000000e+00 0.0000000e+00)) ((1.7479339e+00 -1.9793437e+00 -7.9600960e-03) (8.9225655e-05 -9.6427813e-05 6.4493406e-06) (0.0000000e+00 0.0000000e+00 0.0000000e+00))
38            	((-3.2912553e+01 -2.9395754e+01 -3.2682181e+00) (-2.8715796e-04 -3.0231592e-04 7.6256115e-04) (0.0000000e+00 0.0000000e+00 0.0000000e+00)) ((1.7501701e+00 -1.9817416e+00 -7.6448362e-03) (9.5029624e-05 -1.0161014e-04 5.8679763e-06) (0.0000000e+00 0.0000000e+00 0.0000000e+00))
39            	((-3.2909373e+01 -2.9388726e+01 -3.2423491e+00) (-2.6830144e-04 -2.9777593e-04 8.1774778e-04) (0.0000000e+00 0.0000000e+00 0.0000000e+00)) ((1.7519743e+00 -1.9836770e+00 -7.3636148e-03) (1.0040299e-04 -1.0634155e-04 5.2171607e-06) (0.0000000e+00 0.0000000e+00 0.0000000e+00))
40            	((-3.2905964e+01 -2.9381928e+01 -3.2219694e+00) (-2.4713877e-04 -2.9236222e-04 8.6887608e-04) (0.0000000e+00 0.0000000e+00 0.0000000e+00)) ((1.7533211e+00 -1.9851431e+00 -7.1216294e-03) (1.0534019e-04 -1.1049155e-04 4.4297771e-06) (0.0000000e+00 0.0000000e+00 0.0000000e+00))
41            	((-3.2902728e+01 -2.9375483e+01 -3.2077742e+00) (-2.2220049e-04 -2.8695955e-04 9.1575730e-04) (0.0000000e+00 0.0000000e+00 0.0000000e+00)) ((1.7541430e+00 -1.9861295e+00 -6.8873237e-03) (1.0992098e-04 -1.1392167e-04 3.3159228e-06) (0.0000000e+00 0.0000000e+00 0.0000000e+00))
42            	((-3.2899635e+01 -2.9369275e+01 -3.1988990e+00) (-1.9363491e-04 -2.8034120e-04 9.5684265e-04) (0.0000000e+00 0.0000000e+00 0.0000000e+00)) ((1.7545395e+00 -1.9866564e+00 -6.6537137e-03) (1.1391685e-04 -1.1654468e-04 1.9795914e-06) (0.0000000e+00 0.0000000e+00 0.0000000e+00))
43            	((-3.2896799e+01 -2.9363159e+01 -3.1926049e+00) (-1.6233227e-04 -2.7147193e-04 9.9113082e-04) (0.0000000e+00 0.0000000e+00 0.0000000e+00)) ((1.7547569e+00 -1.9869123e+00 -6.3983362e-03) (1.1715768e-04 -1.1835541e-04 5.5949929e-07) (0.0000000e+00 0.0000000e+00 0.0000000e+00))
44            	((-3.2894522e+01 -2.9357270e+01 -3.1877305e+00) (-1.2928280e-04 -2.5938272e-04 1.0198296e-03) (0.0000000e+00 0.0000000e+00 0.0000000e+00)) ((1.7548643e+00 -1.9870633e+00 -6.1134715e-03) (1.1969670e-04 -1.1950533e-04 -7.9583770e-07) (0.0000000e+00 0.0000000e+00 0.0000000e+00))
45            	((-3.2892481e+01 -2.9352263e+01 -3.1837250e+00) (-9.3059052e-05 -2.4654337e-04 1.0454558e-03) (0.0000000e+00 0.0000000e+00 0.0000000e+00)) ((1.7548602e+00 -1.9872208e+00 -5.8793312e-03) (1.2181243e-04 -1.2008952e-04 -2.2831278e-06) (0.0000000e+00 0.0000000e+00 0.0000000e+00))
46            	((-3.2890837e+01 -2.9348212e+01 -3.1808461e+00) (-5.5099770e-05 -2.3145760e-04 1.0665184e-03) (0.0000000e+00 0.0000000e+00 0.0000000e+00)) ((1.7547890e+00 -1.9873196e+00 -5.6915375e-03) (1.2332084e-04 -1.2006627e-04 -3.7714783e-06) (0.0000000e+00 0.0000000e+00 0.0000000e+00))
47            	((-3.2889753e+01 -2.9344675e+01 -3.1790466e+00) (-1.5966084e-05 -2.1417110e-04 1.0829157e-03) (0.0000000e+00 0.0000000e+00 0.0000000e+00)) ((1.7547066e+00 -1.9873013e+00 -5.5048674e-03) (1.2419961e-04 -1.1946525e-04 -5.2110687e-06) (0.0000000e+00 0.0000000e+00 0.0000000e+00))
48            	((-3.2888935e+01 -2.9341612e+01 -3.1779346e+00) (2.4897154e-05 -1.9568697e-04 1.0959864e-03) (0.0000000e+00 0.0000000e+00 0.0000000e+00)) ((1.7545703e+00 -1.9872604e+00 -5.3380085e-03) (1.2463051e-04 -1.1838964e-04 -6.7465580e-06) (0.0000000e+00 0.0000000e+00 0.0000000e+00))
49            	((-3.2888521e+01 -2.9338996e+01 -3.1779314e+00) (6.8552224e-05 -1.7660050e-04 1.1078444e-03) (0.0000000e+00 0.0000000e+00 0.0000000e+00)) ((1.7543585e+00 -1.9871650e+00 -5.1746508e-03) (1.2470728e-04 -1.1697376e-04 -8.4707558e-06) (0.0000000e+00 0.0000000e+00 0.0000000e+00))
50            	((-3.2888625e+01 -2.9336547e+01 -3.1793542e+00) (1.1403250e-04 -1.5600925e-04 1.1215573e-03) (0.0000000e+00 0.0000000e+00 0.0000000e+00)) ((1.7540572e+00 -1.9869898e+00 -4.9871268e-03) (1.2455063e-04 -1.1560389e-04 -1.0310921e-05) (0.0000000e+00 0.0000000e+00 0.0000000e+00))
51            	((-3.2888613e+01 -2.9334742e+01 -3.1817543e+00) (1.5981098e-04 -1.3402882e-04 1.1318836e-03) (0.0000000e+00 0.0000000e+00 0.0000000e+00)) ((1.7537602e+00 -1.9867356e+00 -4.8494823e-03) (1.2421706e-04 -1.1386873e-04 -1.2052937e-05) (0.0000000e+00 0.0000000e+00 0.0000000e+00))
52            	((-3.2888010e+01 -2.9333448e+01 -3.1805913e+00) (2.0530413e-04 -1.0933898e-04 1.1421239e-03) (0.0000000e+00 0.0000000e+00 0.0000000e+00)) ((1.7536838e+00 -1.9867736e+00 -4.7753865e-03) (1.2368387e-04 -1.1215631e-04 -1.3513329e-05) (0.0000000e+00 0.0000000e+00 0.0000000e+00))
53            	((-3.2887191e+01 -2.9331881e+01 -3.1794474e+00) (2.5041994e-04 -8.3234168e-05 1.1536842e-03) (0.0000000e+00 0.0000000e+00 0.0000000e+00)) ((1.7536111e+00 -1.9867872e+00 -4.6987287e-03) (1.2311816e-04 -1.1059605e-04 -1.4824132e-05) (0.0000000e+00 0.0000000e+00 0.0000000e+00))
54            	((-3.2886445e+01 -2.9329949e+01 -3.1789823e+00) (2.9535275e-04 -5.5367015e-05 1.1658185e-03) (0.0000000e+00 0.0000000e+00 0.0000000e+00)) ((1.7534950e+00 -1.9867311e+00 -4.5948781e-03) (1.2245099e-04 -1.0910850e-04 -1.5973191e-05) (0.0000000e+00 0.0000000e+00 0.0000000e+00))
55            	((-3.2885925e+01 -2.9327906e+01 -3.1768594e+00) (3.4014050e-04 -2.4656011e-05 1.1789075e-03) (0.0000000e+00 0.0000000e+00 0.0000000e+00)) ((1.7535030e+00 -1.9868085e+00 -4.4684727e-03) (1.2164803e-04 -1.0771700e-04 -1.6849791e-05) (0.0000000e+00 0.0000000e+00 0.0000000e+00))
56            	((-3.2885936e+01 -2.9326242e+01 -3.1742407e+00) (3.8398043e-04 8.2731571e-06 1.1925699e-03) (0.0000000e+00 0.0000000e+00 0.0000000e+00)) ((1.7535840e+00 -1.9869530e+00 -4.3313426e-03) (1.2073213e-04 -1.0642285e-04 -1.7460540e-05) (0.0000000e+00 0.0000000e+00 0.0000000e+00))
57            	((-3.2886369e+01 -2.9325161e+01 -3.1720990e+00) (4.2661287e-04 4.3625528e-05 1.2070403e-03) (0.0000000e+00 0.0000000e+00 0.0000000e+00)) ((1.7536728e+00 -1.9870905e+00 -4.2063677e-03) (1.1966966e-04 -1.0526345e-04 -1.7753150e-05) (0.0000000e+00 0.0000000e+00 0.0000000e+00))
58            	((-3.2886992e+01 -2.9324428e+01 -3.1700400e+00) (4.6818619e-04 8.1405504e-05 1.2214907e-03) (0.0000000e+00 0.0000000e+00 0.0000000e+00)) ((1.7537649e+00 -1.9872485e+00 -4.0924118e-03) (1.1839080e-04 -1.0416083e-04 -1.7728063e-05) (0.0000000e+00 0.0000000e+00 0.0000000e+00))
59            	((-3.2887757e+01 -2.9323966e+01 -3.1677065e+00) (5.0932886e-04 1.2078100e-04 1.2350080e-03) (0.0000000e+00 0.0000000e+00 0.0000000e+00)) ((1.7538909e+00 -1.9874495e+00 -3.9864720e-03) (1.1687473e-04 -1.0296825e-04 -1.7523604e-05) (0.0000000e+00 0.0000000e+00 0.0000000e+00))
60            	((-3.2888613e+01 -2.9323675e+01 -3.1657410e+00) (5.5003380e-04 1.6114690e-04 1.2476750e-03) (0.0000000e+00 0.0000000e+00 0.0000000e+00)) ((1.7540036e+00 -1.9876268e+00 -3.8860843e-03) (1.1519306e-04 -1.0167376e-04 -1.7198741e-05) (0.0000000e+00 0.0000000e+00 0.0000000e+00))
61            	((-3.2889485e+01 -2.9323405e+01 -3.1644023e+00) (5.8985465e-04 2.0178086e-04 1.2588223e-03) (0.0000000e+00 0.0000000e+00 0.0000000e+00)) ((1.7540647e+00 -1.9877558e+00 -3.7840214e-03) (1.1334663e-04 -1.0025807e-04 -1.6779233e-05) (0.0000000e+00 0.0000000e+00 0.0000000e+00))
62            	((-3.2890483e+01 -2.9323190e+01 -3.1635556e+00) (6.2831911e-04 2.4217973e-04 1.2676491e-03) (0.0000000e+00 0.0000000e+00 0.0000000e+00)) ((1.7540878e+00 -1.9878491e+00 -3.6765586e-03) (1.1129650e-04 -9.8669663e-05 -1.6285043e-05) (0.0000000e+00 0.0000000e+00 0.0000000e+00))
63            	((-3.2891664e+01 -2.9323167e+01 -3.1628359e+00) (6.6543583e-04 2.8198319e-04 1.2751158e-03) (0.0000000e+00 0.0000000e+00 0.0000000e+00)) ((1.7541099e+00 -1.9879359e+00 -3.5692352e-03) (1.0914233e-04 -9.6997741e-05 -1.5742980e-05) (0.0000000e+00 0.0000000e+00 0.0000000e+00))
64            	((-3.2893107e+01 -2.9323414e+01 -3.1626492e+00) (7.0051981e-04 3.2153472e-04 1.2808980e-03) (0.0000000e+00 0.0000000e+00 0.0000000e+00)) ((1.7541027e+00 -1.9879926e+00 -3.4622912e-03) (1.0682762e-04 -9.5273412e-05 -1.5059902e-05) (0.0000000e+00 0.0000000e+00 0.0000000e+00))
65            	((-3.2894813e+01 -2.9323916e+01 -3.1629699e+00) (7.3374333e-04 3.5976402e-04 1.2849272e-03) (0.0000000e+00 0.0000000e+00 0.0000000e+00)) ((1.7540656e+00 -1.9880246e+00 -3.3548329e-03) (1.0441105e-04 -9.3470580e-05 -1.4332375e-05) (0.0000000e+00 0.0000000e+00 0.0000000e+00))
66            	((-3.2896717e+01 -2.9324608e+01 -3.1633751e+00) (7.6512620e-04 3.9661071e-04 1.2876112e-03) (0.0000000e+00 0.0000000e+00 0.0000000e+00)) ((1.7540292e+00 -1.9880553e+00 -3.2476797e-03) (1.0192951e-04 -9.1631955e-05 -1.3565655e-05) (0.0000000e+00 0.0000000e+00 0.0000000e+00))
67            	((-3.2898813e+01 -2.9325513e+01 -3.1638071e+00) (7.9409861e-04 4.3250729e-04 1.2889829e-03) (0.0000000e+00 0.0000000e+00 0.0000000e+00)) ((1.7540039e+00 -1.9880863e+00 -3.1427751e-03) (9.9360229e-05 -8.9803059e-05 -1.2692077e-05) (0.0000000e+00 0.0000000e+00 0.0000000e+00))
68            	((-3.2901046e+01 -2.9326547e+01 -3.1641400e+00) (8.2121799e-04 4.6677776e-04 1.2885232e-03) (0.0000000e+00 0.0000000e+00 0.0000000e+00)) ((1.7539950e+00 -1.9881308e+00 -3.0387641e-03) (9.6712957e-05 -8.7906983e-05 -1.1829444e-05) (0.0000000e+00 0.0000000e+00 0.0000000e+00))
69            	((-3.2903402e+01 -2.9327781e+01 -3.1642597e+00) (8.4669207e-04 4.9922303e-04 1.2863055e-03) (0.0000000e+00 0.0000000e+00 0.0000000e+00)) ((1.7540116e+00 -1.9882012e+00 -2.9420300e-03) (9.4004198e-05 -8.5949532e-05 -1.1007326e-05) (0.0000000e+00 0.0000000e+00 0.0000000e+00))
70            	((-3.2905841e+01 -2.9329246e+01 -3.1642240e+00) (8.7049213e-04 5.2993721e-04 1.2824879e-03) (0.0000000e+00 0.0000000e+00 0.0000000e+00)) ((1.7540519e+00 -1.9882911e+00 -2.8565944e-03) (9.1229702e-05 -8.3953095e-05 -1.0224117e-05) (0.0000000e+00 0.0000000e+00 0.0000000e+00))
71            	((-3.2908385e+01 -2.9330823e+01 -3.1641234e+00) (8.9303556e-04 5.5858956e-04 1.2772449e-03) (0.0000000e+00 0.0000000e+00 0.0000000e+00)) ((1.7541024e+00 -1.9883955e+00 -2.7724104e-03) (8.8437578e-05 -8.1906538e-05 -9.5528882e-06) (0.0000000e+00 0.0000000e+00 0.0000000e+00))
72            	((-3.2911046e+01 -2.9332523e+01 -3.1641739e+00) (9.1444425e-04 5.8540279e-04 1.2709407e-03) (0.0000000e+00 0.0000000e+00 0.0000000e+00)) ((1.7541459e+00 -1.9884929e+00 -2.6888248e-03) (8.5643489e-05 -7.9828033e-05 -8.9811707e-06) (0.0000000e+00 0.0000000e+00 0.0000000e+00))
73            	((-3.2913761e+01 -2.9334326e+01 -3.1643439e+00) (9.3421656e-04 6.1054969e-04 1.2634424e-03) (0.0000000e+00 0.0000000e+00 0.0000000e+00)) ((1.7541884e+00 -1.9885804e+00 -2.6085481e-03) (8.2819629e-05 -7.7745488e-05 -8.4417843e-06) (0.0000000e+00 0.0000000e+00 0.0000000e+00))
74            	((-3.2916554e+01 -2.9336238e+01 -3.1645232e+00) (9.5261815e-04 6.3365389e-04 1.2545574e-03) (0.0000000e+00 0.0000000e+00 0.0000000e+00)) ((1.7542371e+00 -1.9886700e+00 -2.5305732e-03) (7.9964156e-05 -7.5622245e-05 -7.9835384e-06) (0.0000000e+00 0.0000000e+00 0.0000000e+00))
75            	((-3.2919408e+01 -2.9338214e+01 -3.1644046e+00) (9.6913772e-04 6.5482800e-04 1.2444273e-03) (0.0000000e+00 0.0000000e+00 0.0000000e+00)) ((1.7543160e+00 -1.9887821e+00 -2.4533861e-03) (7.7092019e-05 -7.3500824e-05 -7.5509275e-06) (0.0000000e+00 0.0000000e+00 0.0000000e+00))
76            	((-3.2922295e+01 -2.9340207e+01 -3.1638821e+00) (9.8375328e-04 6.7447548e-04 1.2329232e-03) (0.0000000e+00 0.0000000e+00 0.0000000e+00)) ((1.7544268e+00 -1.9889260e+00 -2.3759303e-03) (7.4162304e-05 -7.1374578e-05 -7.0817144e-06) (0.0000000e+00 0.0000000e+00 0.0000000e+00))
77            	((-3.2925227e+01 -2.9342263e+01 -3.1631097e+00) (9.9645593e-04 6.9293560e-04 1.2199629e-03) (0.0000000e+00 0.0000000e+00 0.0000000e+00)) ((1.7545550e+00 -1.9890981e+00 -2.3011482e-03) (7.1140981e-05 -6.9226762e-05 -6.5516919e-06) (0.0000000e+00 0.0000000e+00 0.0000000e+00))
78            	((-3.2928231e+01 -2.9344386e+01 -3.1620908e+00) (1.0076660e-03 7.0991389e-04 1.2057015e-03) (0.0000000e+00 0.0000000e+00 0.0000000e+00)) ((1.7547045e+00 -1.9892991e+00 -2.2272622e-03) (6.8073782e-05 -6.7045089e-05 -6.0304231e-06) (0.0000000e+00 0.0000000e+00 0.0000000e+00))
79            	((-3.2931300e+01 -2.9346534e+01 -3.1610902e+00) (1.0176718e-03 7.2513297e-04 1.1903036e-03) (0.0000000e+00 0.0000000e+00 0.0000000e+00)) ((1.7548575e+00 -1.9895009e+00 -2.1509664e-03) (6.4996890e-05 -6.4826597e-05 -5.5534922e-06) (0.0000000e+00 0.0000000e+00 0.0000000e+00))
80            	((-3.2934425e+01 -2.9348742e+01 -3.1600291e+00) (1.0265676e-03 7.3896950e-04 1.1741562e-03) (0.0000000e+00 0.0000000e+00 0.0000000e+00)) ((1.7550212e+00 -1.9897104e+00 -2.0756382e-03) (6.1933399e-05 -6.2606335e-05 -5.1069254e-06) (0.0000000e+00 0.0000000e+00 0.0000000e+00))
81            	((-3.2937625e+01 -2.9351058e+01 -3.1588600e+00) (1.0342101e-03 7.5155887e-04 1.1577113e-03) (0.0000000e+00 0.0000000e+00 0.0000000e+00)) ((1.7551962e+00 -1.9899361e+00 -2.0028069e-03) (5.8923533e-05 -6.0422493e-05 -4.6520138e-06) (0.0000000e+00 0.0000000e+00 0.0000000e+00))
82            	((-3.2940859e+01 -2.9353449e+01 -3.1574717e+00) (1.0407714e-03 7.6324753e-04 1.1409505e-03) (0.0000000e+00 0.0000000e+00 0.0000000e+00)) ((1.7553905e+00 -1.9901830e+00 -1.9323274e-03) (5.5934349e-05 -5.8279220e-05 -4.1681073e-06) (0.0000000e+00 0.0000000e+00 0.0000000e+00))
83            	((-3.2944103e+01 -2.9355844e+01 -3.1560433e+00) (1.0461861e-03 7.7416923e-04 1.1241063e-03) (0.0000000e+00 0.0000000e+00 0.0000000e+00)) ((1.7555883e+00 -1.9904324e+00 -1.8616108e-03) (5.2972278e-05 -5.6206535e-05 -3.6374887e-06) (0.0000000e+00 0.0000000e+00 0.0000000e+00))
84            	((-3.2947414e+01 -2.9358284e+01 -3.1545516e+00) (1.0507496e-03 7.8426829e-04 1.1074386e-03) (0.0000000e+00 0.0000000e+00 0.0000000e+00)) ((1.7557924e+00 -1.9906947e+00 -1.7895346e-03) (5.0077744e-05 -5.4202687e-05 -3.0863065e-06) (0.0000000e+00 0.0000000e+00 0.0000000e+00))
85            	((-3.2950747e+01 -2.9360781e+01 -3.1529801e+00) (1.0543345e-03 7.9336887e-04 1.0910831e-03) (0.0000000e+00 0.0000000e+00 0.0000000e+00)) ((1.7560046e+00 -1.9909668e+00 -1.7197370e-03) (4.7290003e-05 -5.2290241e-05 -2.5226010e-06) (0.0000000e+00 0.0000000e+00 0.0000000e+00))
86            	((-3.2954061e+01 -2.9363288e+01 -3.1513829e+00) (1.0574847e-03 8.0178114e-04 1.0750217e-03) (0.0000000e+00 0.0000000e+00 0.0000000e+00)) ((1.7562233e+00 -1.9912381e+00 -1.6530318e-03) (4.4578222e-05 -5.0439018e-05 -1.9942766e-06) (0.0000000e+00 0.0000000e+00 0.0000000e+00))
87            	((-3.2957317e+01 -2.9365727e+01 -3.1496575e+00) (1.0605272e-03 8.0956929e-04 1.0592167e-03) (0.0000000e+00 0.0000000e+00 0.0000000e+00)) ((1.7564510e+00 -1.9915153e+00 -1.5873432e-03) (4.1945930e-05 -4.8623530e-05 -1.5230704e-06) (0.0000000e+00 0.0000000e+00 0.0000000e+00))
88            	((-3.2960498e+01 -2.9368110e+01 -3.1477491e+00) (1.0635128e-03 8.1691011e-04 1.0439091e-03) (0.0000000e+00 0.0000000e+00 0.0000000e+00)) ((1.7566864e+00 -1.9918080e+00 -1.5233749e-03) (3.9399426e-05 -4.6857831e-05 -1.0969421e-06) (0.0000000e+00 0.0000000e+00 0.0000000e+00))
89            	((-3.2963625e+01 -2.9370462e+01 -3.1459118e+00) (1.0666105e-03 8.2404759e-04 1.0297106e-03) (0.0000000e+00 0.0000000e+00 0.0000000e+00)) ((1.7569147e+00 -1.9920948e+00 -1.4609113e-03) (3.6979810e-05 -4.5193129e-05 -7.0788834e-07) (0.0000000e+00 0.0000000e+00 0.0000000e+00))
90            	((-3.2966705e+01 -2.9372770e+01 -3.1440300e+00) (1.0697951e-03 8.3086583e-04 1.0165000e-03) (0.0000000e+00 0.0000000e+00 0.0000000e+00)) ((1.7571450e+00 -1.9923831e+00 -1.3989876e-03) (3.4674586e-05 -4.3625630e-05 -3.6328059e-07) (0.0000000e+00 0.0000000e+00 0.0000000e+00))
91            	((-3.2969735e+01 -2.9375058e+01 -3.1419676e+00) (1.0729538e-03 8.3709076e-04 1.0042041e-03) (0.0000000e+00 0.0000000e+00 0.0000000e+00)) ((1.7573877e+00 -1.9926858e+00 -1.3388296e-03) (3.2506330e-05 -4.2154362e-05 -7.4950728e-08) (0.0000000e+00 0.0000000e+00 0.0000000e+00))
92            	((-3.2972694e+01 -2.9377327e+01 -3.1397780e+00) (1.0763440e-03 8.4305308e-04 9.9277528e-04) (0.0000000e+00 0.0000000e+00 0.0000000e+00)) ((1.7576469e+00 -1.9929907e+00 -1.2826576e-03) (3.0452143e-05 -4.0759768e-05 1.4617174e-07) (0.0000000e+00 0.0000000e+00 0.0000000e+00))
93            	((-3.2975575e+01 -2.9379527e+01 -3.1372884e+00) (1.0801132e-03 8.4893477e-04 9.8224794e-04) (0.0000000e+00 0.0000000e+00 0.0000000e+00)) ((1.7579305e+00 -1.9933126e+00 -1.2284649e-03) (2.8519452e-05 -3.9434659e-05 3.0379894e-07) (0.0000000e+00 0.0000000e+00 0.0000000e+00))
94            	((-3.2978346e+01 -2.9381622e+01 -3.1346245e+00) (1.0839756e-03 8.5486807e-04 9.7277660e-04) (0.0000000e+00 0.0000000e+00 0.0000000e+00)) ((1.7582204e+00 -1.9936469e+00 -1.1751457e-03) (2.6726575e-05 -3.8194480e-05 4.3626212e-07) (0.0000000e+00 0.0000000e+00 0.0000000e+00))
95            	((-3.2981022e+01 -2.9383633e+01 -3.1319259e+00) (1.0885082e-03 8.6149294e-04 9.6508814e-04) (0.0000000e+00 0.0000000e+00 0.0000000e+00)) ((1.7585058e+00 -1.9939858e+00 -1.1222921e-03) (2.5096919e-05 -3.7071932e-05 5.6349417e-07) (0.0000000e+00 0.0000000e+00 0.0000000e+00))
96            	((-3.2983618e+01 -2.9385613e+01 -3.1291858e+00) (1.0934281e-03 8.6857411e-04 9.5901158e-04) (0.0000000e+00 0.0000000e+00 0.0000000e+00)) ((1.7587941e+00 -1.9943268e+00 -1.0720979e-03) (2.3648400e-05 -3.6079977e-05 6.9738866e-07) (0.0000000e+00 0.0000000e+00 0.0000000e+00))
97            	((-3.2986131e+01 -2.9387510e+01 -3.1262985e+00) (1.0988482e-03 8.7656704e-04 9.5496087e-04) (0.0000000e+00 0.0000000e+00 0.0000000e+00)) ((1.7590904e+00 -1.9946763e+00 -1.0223645e-03) (2.2376365e-05 -3.5264672e-05 8.5815900e-07) (0.0000000e+00 0.0000000e+00 0.0000000e+00))
98            	((-3.2988518e+01 -2.9389273e+01 -3.1231913e+00) (1.1049525e-03 8.8571637e-04 9.5358982e-04) (0.0000000e+00 0.0000000e+00 0.0000000e+00)) ((1.7593906e+00 -1.9950418e+00 -9.7297207e-04) (2.1335521e-05 -3.4672381e-05 1.0585189e-06) (0.0000000e+00 0.0000000e+00 0.0000000e+00))
99            	((-3.2990688e+01 -2.9390887e+01 -3.1197803e+00) (1.1117415e-03 8.9598596e-04 9.5483066e-04) (0.0000000e+00 0.0000000e+00 0.0000000e+00)) ((1.7597266e+00 -1.9954045e+00 -9.3011180e-04) (2.0531136e-05 -3.4288434e-05 1.2809390e-06) (0.0000000e+00 0.0000000e+00 0.0000000e+00))
100           	((-3.2992673e+01 -2.9392341e+01 -3.1161399e+00) (1.1192450e-03 9.0729175e-04 9.5885450e-04) (0.0000000e+00 0.0000000e+00 0.0000000e+00)) ((1.7600784e+00 -1.9957727e+00 -8.9005835e-04) (1.9982700e-05 -3.4128351e-05 1.5228952e-06) (0.0000000e+00 0.0000000e+00 0.0000000e+00))
101           	((-3.2994498e+01 -2.9393628e+01 -3.1123218e+00) (1.1278658e-03 9.1900234e-04 9.6579243e-04) (0.0000000e+00 0.0000000e+00 0.0000000e+00)) ((1.7604287e+00 -1.9961550e+00 -8.4964031e-04) (1.9740138e-05 -3.4185881e-05 1.6895793e-06) (0.0000000e+00 0.0000000e+00 0.0000000e+00))
102           	((-3.2996191e+01 -2.9394781e+01 -3.1082507e+00) (1.1376680e-03 9.3132642e-04 9.7497214e-04) (0.0000000e+00 0.0000000e+00 0.0000000e+00)) ((1.7607868e+00 -1.9965581e+00 -8.0899593e-04) (1.9711038e-05 -3.4400951e-05 1.8042690e-06) (0.0000000e+00 0.0000000e+00 0.0000000e+00))