# Residuals   
# Time        	p             	Ux            	Uy            	Uz            
1             	1.0000000e+00	1.0000000e+00	1.0000000e+00	1.0000000e+00
