# Forces      
# CofR        : (0.0000000e+00 0.0000000e+00 0.0000000e+00)
# Time        forces(pressure viscous porous) moment(pressure viscous porous)
1             	((0.0000000e+00 0.0000000e+00 0.0000000e+00) (0.0000000e+00 0.0000000e+00 0.0000000e+00) (0.0000000e+00 0.0000000e+00 0.0000000e+00)) ((0.0000000e+00 0.0000000e+00 0.0000000e+00) (0.0000000e+00 0.0000000e+00 0.0000000e+00) (0.0000000e+00 0.0000000e+00 0.0000000e+00))
