# Forces      
# CofR        : (0.0000000e+00 0.0000000e+00 0.0000000e+00)
# Time        forces(pressure viscous porous) moment(pressure viscous porous)
1             	((2.6148362e+01 -2.9994996e+01 -1.0391679e+02) (-7.3510909e-05 2.0159284e-04 -6.9591711e-03) (0.0000000e+00 0.0000000e+00 0.0000000e+00)) ((-8.2113071e+00 -8.2265086e+00 3.1719162e-02) (-6.4152290e-04 -6.1955268e-04 -1.1232700e-05) (0.0000000e+00 0.0000000e+00 0.0000000e+00))
2             	((2.8214835e+01 -3.2152453e+01 -4.7622636e+01) (-3.6410834e-06 1.8670467e-04 -3.5351678e-03) (0.0000000e+00 0.0000000e+00 0.0000000e+00)) ((-3.2280629e+00 -3.3482672e+00 3.2556461e-02) (-3.0500751e-04 -2.8337009e-04 -1.5406421e-05) (0.0000000e+00 0.0000000e+00 0.0000000e+00))
3             	((3.0099640e+01 -3.3825324e+01 1.0756001e+01) (-1.1273630e-04 3.1345965e-04 -3.4289624e-03) (0.0000000e+00 0.0000000e+00 0.0000000e+00)) ((1.7901998e+00 1.6525401e+00 7.6234429e-03) (-3.0974842e-04 -2.8723540e-04 -1.7764914e-05) (0.0000000e+00 0.0000000e+00 0.0000000e+00))
4             	((3.0347901e+01 -3.3961155e+01 1.4803492e+01) (-1.6170577e-04 3.5871624e-04 -3.9531520e-03) (0.0000000e+00 0.0000000e+00 0.0000000e+00)) ((2.0909596e+00 1.9890675e+00 -2.9874710e-03) (-3.6841935e-04 -3.4704556e-04 -1.8782919e-05) (0.0000000e+00 0.0000000e+00 0.0000000e+00))
5             	((2.9844146e+01 -3.3490904e+01 -8.8732243e-01) (-1.6877663e-04 3.4979535e-04 -4.1126743e-03) (0.0000000e+00 0.0000000e+00 0.0000000e+00)) ((7.1551294e-01 6.3158065e-01 9.7884033e-04) (-3.8465561e-04 -3.6437922e-04 -1.8470439e-05) (0.0000000e+00 0.0000000e+00 0.0000000e+00))
6             	((2.9549147e+01 -3.3255721e+01 -7.7297683e+00) (-1.1864976e-04 2.9132390e-04 -3.8509349e-03) (0.0000000e+00 0.0000000e+00 0.0000000e+00)) ((1.2626418e-01 3.9930502e-02 6.3747697e-03) (-3.5816349e-04 -3.3773036e-04 -1.8612202e-05) (0.0000000e+00 0.0000000e+00 0.0000000e+00))
7             	((2.9526475e+01 -3.3250651e+01 -6.0531734e+00) (-5.3503518e-05 2.2886820e-04 -3.4785677e-03) (0.0000000e+00 0.0000000e+00 0.0000000e+00)) ((2.7350782e-01 1.8227924e-01 7.4451722e-03) (-3.2174244e-04 -3.0070681e-04 -1.9624468e-05) (0.0000000e+00 0.0000000e+00 0.0000000e+00))
8             	((2.9574047e+01 -3.3286847e+01 -3.6154422e+00) (-5.7441692e-06 1.6883980e-04 -3.1316185e-03) (0.0000000e+00 0.0000000e+00 0.0000000e+00)) ((4.8222193e-01 3.9051124e-01 6.1255447e-03) (-2.8897476e-04 -2.6804258e-04 -1.9101475e-05) (0.0000000e+00 0.0000000e+00 0.0000000e+00))
9             	((2.9593525e+01 -3.3286108e+01 -3.2519732e+00) (1.8586236e-05 1.0640884e-04 -2.8226439e-03) (0.0000000e+00 0.0000000e+00 0.0000000e+00)) ((5.1096894e-01 4.2189678e-01 4.4721953e-03) (-2.6032887e-04 -2.4045202e-04 -1.6563939e-05) (0.0000000e+00 0.0000000e+00 0.0000000e+00))
10            	((2.9587669e+01 -3.3267670e+01 -3.7665412e+00) (3.1619414e-05 4.4545332e-05 -2.5275205e-03) (0.0000000e+00 0.0000000e+00 0.0000000e+00)) ((4.6493221e-01 3.7827510e-01 3.6396586e-03) (-2.3300903e-04 -2.1469073e-04 -1.3328438e-05) (0.0000000e+00 0.0000000e+00 0.0000000e+00))
11            	((2.9561356e+01 -3.3237380e+01 -4.1460856e+00) (5.0161059e-05 -9.8853676e-06 -2.2328093e-03) (0.0000000e+00 0.0000000e+00 0.0000000e+00)) ((4.3163426e-01 3.4541436e-01 3.4373635e-03) (-2.0620953e-04 -1.8881878e-04 -1.1014161e-05) (0.0000000e+00 0.0000000e+00 0.0000000e+00))
12            	((2.9535782e+01 -3.3213356e+01 -4.1321419e+00) (8.6088857e-05 -5.5130214e-05 -1.9568098e-03) (0.0000000e+00 0.0000000e+00 0.0000000e+00)) ((4.3230460e-01 3.4603566e-01 3.5250208e-03) (-1.8148171e-04 -1.6449551e-04 -1.0790504e-05) (0.0000000e+00 0.0000000e+00 0.0000000e+00))
13            	((2.9513614e+01 -3.3189051e+01 -4.0868598e+00) (1.2414514e-04 -1.0281976e-04 -1.7078993e-03) (0.0000000e+00 0.0000000e+00 0.0000000e+00)) ((4.3542909e-01 3.4965016e-01 3.2707207e-03) (-1.5921030e-04 -1.4298447e-04 -1.0516862e-05) (0.0000000e+00 0.0000000e+00 0.0000000e+00))
14            	((2.9497566e+01 -3.3165835e+01 -4.0453818e+00) (1.6031697e-04 -1.5348784e-04 -1.4867342e-03) (0.0000000e+00 0.0000000e+00 0.0000000e+00)) ((4.3828252e-01 3.5338243e-01 2.6036652e-03) (-1.3911569e-04 -1.2410355e-04 -9.9087133e-06) (0.0000000e+00 0.0000000e+00 0.0000000e+00))
15            	((2.9479257e+01 -3.3140252e+01 -4.0544174e+00) (1.9149975e-04 -2.0404710e-04 -1.2939631e-03) (0.0000000e+00 0.0000000e+00 0.0000000e+00)) ((4.3710244e-01 3.5270295e-01 1.9410749e-03) (-1.2116235e-04 -1.0748021e-04 -8.9717705e-06) (0.0000000e+00 0.0000000e+00 0.0000000e+00))
16            	((2.9458773e+01 -3.3113981e+01 -4.0856485e+00) (2.1881466e-04 -2.6211186e-04 -1.1364947e-03) (0.0000000e+00 0.0000000e+00 0.0000000e+00)) ((4.3408224e-01 3.4990780e-01 1.4865998e-03) (-1.0574872e-04 -9.3418335e-05 -7.1179632e-06) (0.0000000e+00 0.0000000e+00 0.0000000e+00))
17            	((2.9437993e+01 -3.3084809e+01 -4.1018561e+00) (2.3977917e-04 -3.2815272e-04 -1.0114877e-03) (0.0000000e+00 0.0000000e+00 0.0000000e+00)) ((4.3223039e-01 3.4830863e-01 8.4383517e-04) (-9.2714987e-05 -8.1945001e-05 -4.0704410e-06) (0.0000000e+00 0.0000000e+00 0.0000000e+00))
18            	((2.9419791e+01 -3.3053666e+01 -4.1090850e+00) (2.4984997e-04 -4.0882369e-04 -9.1047932e-04) (0.0000000e+00 0.0000000e+00 0.0000000e+00)) ((4.3086054e-01 3.4780680e-01 -2.1420751e-04) (-8.1444703e-05 -7.2648782e-05 9.4823656e-07) (0.0000000e+00 0.0000000e+00 0.0000000e+00))
19            	((2.9403613e+01 -3.3022527e+01 -4.0957562e+00) (2.5124988e-04 -4.9559085e-04 -8.2156133e-04) (0.0000000e+00 0.0000000e+00 0.0000000e+00)) ((4.3121079e-01 3.4920666e-01 -1.4927300e-03) (-7.0870268e-05 -6.4420406e-05 7.0929612e-06) (0.0000000e+00 0.0000000e+00 0.0000000e+00))
20            	((2.9386157e+01 -3.2993171e+01 -4.0679117e+00) (2.4930261e-04 -5.8259004e-04 -7.4104577e-04) (0.0000000e+00 0.0000000e+00 0.0000000e+00)) ((4.3270465e-01 3.5212298e-01 -2.5399473e-03) (-6.0593496e-05 -5.6945840e-05 1.3630694e-05) (0.0000000e+00 0.0000000e+00 0.0000000e+00))
21            	((2.9367982e+01 -3.2966544e+01 -4.0112124e+00) (2.4456857e-04 -6.6462441e-04 -6.6358185e-04) (0.0000000e+00 0.0000000e+00 0.0000000e+00)) ((4.3663339e-01 3.5717119e-01 -3.2895618e-03) (-5.0306070e-05 -4.9828235e-05 2.0223396e-05) (0.0000000e+00 0.0000000e+00 0.0000000e+00))
22            	((2.9350023e+01 -3.2941130e+01 -3.9417210e+00) (2.3768672e-04 -7.3725054e-04 -5.9256417e-04) (0.0000000e+00 0.0000000e+00 0.0000000e+00)) ((4.4169364e-01 3.6318889e-01 -3.9315770e-03) (-4.0680161e-05 -4.3182530e-05 2.6576465e-05) (0.0000000e+00 0.0000000e+00 0.0000000e+00))
23            	((2.9333558e+01 -3.2918260e+01 -3.8773409e+00) (2.3473856e-04 -7.9325349e-04 -5.3135814e-04) (0.0000000e+00 0.0000000e+00 0.0000000e+00)) ((4.4643557e-01 3.6869762e-01 -4.4757378e-03) (-3.2326784e-05 -3.7151044e-05 3.1451676e-05) (0.0000000e+00 0.0000000e+00 0.0000000e+00))
24            	((2.9319640e+01 -3.2896729e+01 -3.8148966e+00) (2.3754482e-04 -8.3552625e-04 -4.7594728e-04) (0.0000000e+00 0.0000000e+00 0.0000000e+00)) ((4.5106071e-01 3.7402326e-01 -5.1031749e-03) (-2.4892006e-05 -3.1219233e-05 3.5107702e-05) (0.0000000e+00 0.0000000e+00 0.0000000e+00))
25            	((2.9306137e+01 -3.2877725e+01 -3.7523130e+00) (2.4306145e-04 -8.6397634e-04 -4.2533935e-04) (0.0000000e+00 0.0000000e+00 0.0000000e+00)) ((4.5579950e-01 3.7930563e-01 -5.5564862e-03) (-1.8233891e-05 -2.5491217e-05 3.7836165e-05) (0.0000000e+00 0.0000000e+00 0.0000000e+00))
26            	((2.9292998e+01 -3.2861341e+01 -3.6866852e+00) (2.4889165e-04 -8.8123982e-04 -3.7724752e-04) (0.0000000e+00 0.0000000e+00 0.0000000e+00)) ((4.6076277e-01 3.8482591e-01 -5.8384142e-03) (-1.2108424e-05 -1.9876451e-05 3.9996425e-05) (0.0000000e+00 0.0000000e+00 0.0000000e+00))
27            	((2.9279631e+01 -3.2846720e+01 -3.6158413e+00) (2.5860057e-04 -8.8464881e-04 -3.3039913e-04) (0.0000000e+00 0.0000000e+00 0.0000000e+00)) ((4.6609669e-01 3.9082585e-01 -5.9845433e-03) (-6.4243494e-06 -1.4215062e-05 4.0740470e-05) (0.0000000e+00 0.0000000e+00 0.0000000e+00))
28            	((2.9267147e+01 -3.2833302e+01 -3.5418274e+00) (2.6803390e-04 -8.7887126e-04 -2.8602297e-04) (0.0000000e+00 0.0000000e+00 0.0000000e+00)) ((4.7177208e-01 3.9700902e-01 -6.0967518e-03) (-1.1890941e-06 -8.7335541e-06 4.0861796e-05) (0.0000000e+00 0.0000000e+00 0.0000000e+00))
29            	((2.9255842e+01 -3.2820490e+01 -3.4683597e+00) (2.7823971e-04 -8.6167337e-04 -2.4336114e-04) (0.0000000e+00 0.0000000e+00 0.0000000e+00)) ((4.7746018e-01 4.0308434e-01 -6.2358862e-03) (3.6122567e-06 -3.3638046e-06 4.0065732e-05) (0.0000000e+00 0.0000000e+00 0.0000000e+00))
30            	((2.9246169e+01 -3.2809038e+01 -3.3969806e+00) (2.9049556e-04 -8.3419264e-04 -2.0205573e-04) (0.0000000e+00 0.0000000e+00 0.0000000e+00)) ((4.8301403e-01 4.0883451e-01 -6.3780867e-03) (8.0267135e-06 1.9977157e-06 3.8266688e-05) (0.0000000e+00 0.0000000e+00 0.0000000e+00))
31            	((2.9237904e+01 -3.2798843e+01 -3.3319032e+00) (3.0478630e-04 -7.9413410e-04 -1.5702053e-04) (0.0000000e+00 0.0000000e+00 0.0000000e+00)) ((4.8811015e-01 4.1402575e-01 -6.5257551e-03) (1.2417720e-05 7.7871578e-06 3.5220050e-05) (0.0000000e+00 0.0000000e+00 0.0000000e+00))
32            	((2.9230604e+01 -3.2789572e+01 -3.2721788e+00) (3.2179098e-04 -7.4246858e-04 -1.1079338e-04) (0.0000000e+00 0.0000000e+00 0.0000000e+00)) ((4.9274120e-01 4.1889062e-01 -6.6793476e-03) (1.6597990e-05 1.3692886e-05 3.0861629e-05) (0.0000000e+00 0.0000000e+00 0.0000000e+00))
33            	((2.9223241e+01 -3.2781221e+01 -3.2185714e+00) (3.3898930e-04 -6.7872138e-04 -6.4121615e-05) (0.0000000e+00 0.0000000e+00 0.0000000e+00)) ((4.9691601e-01 4.2325246e-01 -6.7511878e-03) (2.0410366e-05 1.9504181e-05 2.5510139e-05) (0.0000000e+00 0.0000000e+00 0.0000000e+00))
34            	((2.9216134e+01 -3.2772952e+01 -3.1664673e+00) (3.5456756e-04 -6.0662728e-04 -1.7853271e-05) (0.0000000e+00 0.0000000e+00 0.0000000e+00)) ((5.0101874e-01 4.2737003e-01 -6.8376419e-03) (2.3855466e-05 2.5116696e-05 1.9588725e-05) (0.0000000e+00 0.0000000e+00 0.0000000e+00))
35            	((2.9208885e+01 -3.2764673e+01 -3.1167470e+00) (3.6709443e-04 -5.3199390e-04 2.8030839e-05) (0.0000000e+00 0.0000000e+00 0.0000000e+00)) ((5.0498408e-01 4.3129836e-01 -6.9117744e-03) (2.7109011e-05 3.0497003e-05 1.3624878e-05) (0.0000000e+00 0.0000000e+00 0.0000000e+00))
36            	((2.9201732e+01 -3.2756936e+01 -3.0701072e+00) (3.7791597e-04 -4.5520148e-04 7.1425878e-05) (0.0000000e+00 0.0000000e+00 0.0000000e+00)) ((5.0865756e-01 4.3507993e-01 -6.9493568e-03) (2.9996547e-05 3.5530549e-05 7.5355997e-06) (0.0000000e+00 0.0000000e+00 0.0000000e+00))
37            	((2.9195007e+01 -3.2749904e+01 -3.0262955e+00) (3.8938213e-04 -3.7815694e-04 1.1391769e-04) (0.0000000e+00 0.0000000e+00 0.0000000e+00)) ((5.1205830e-01 4.3864016e-01 -6.9630685e-03) (3.2762415e-05 4.0449325e-05 1.3083838e-06) (0.0000000e+00 0.0000000e+00 0.0000000e+00))
38            	((2.9188666e+01 -3.2743814e+01 -2.9866208e+00) (3.9969929e-04 -3.0330551e-04 1.5437144e-04) (0.0000000e+00 0.0000000e+00 0.0000000e+00)) ((5.1515376e-01 4.4181150e-01 -6.9333802e-03) (3.5383845e-05 4.5115971e-05 -4.6701679e-06) (0.0000000e+00 0.0000000e+00 0.0000000e+00))
39            	((2.9182638e+01 -3.2738362e+01 -2.9558180e+00) (4.0619186e-04 -2.3388479e-04 1.9348081e-04) (0.0000000e+00 0.0000000e+00 0.0000000e+00)) ((5.1761214e-01 4.4417150e-01 -6.8799777e-03) (3.7988846e-05 4.9533267e-05 -9.9329639e-06) (0.0000000e+00 0.0000000e+00 0.0000000e+00))
40            	((2.9176971e+01 -3.2733407e+01 -2.9341164e+00) (4.0738865e-04 -1.6870175e-04 2.3308409e-04) (0.0000000e+00 0.0000000e+00 0.0000000e+00)) ((5.1942693e-01 4.4571452e-01 -6.8147424e-03) (4.0710756e-05 5.3840803e-05 -1.4480949e-05) (0.0000000e+00 0.0000000e+00 0.0000000e+00))
41            	((2.9171695e+01 -3.2728970e+01 -2.9147726e+00) (4.0651118e-04 -1.0468048e-04 2.7269138e-04) (0.0000000e+00 0.0000000e+00 0.0000000e+00)) ((5.2103026e-01 4.4708864e-01 -6.7375784e-03) (4.3466474e-05 5.8079511e-05 -1.8782476e-05) (0.0000000e+00 0.0000000e+00 0.0000000e+00))
42            	((2.9166694e+01 -3.2725072e+01 -2.8960973e+00) (4.0210514e-04 -4.2847129e-05 3.1245271e-04) (0.0000000e+00 0.0000000e+00 0.0000000e+00)) ((5.2255860e-01 4.4842653e-01 -6.6396632e-03) (4.6275686e-05 6.2208769e-05 -2.2653165e-05) (0.0000000e+00 0.0000000e+00 0.0000000e+00))
43            	((2.9161689e+01 -3.2721681e+01 -2.8807405e+00) (3.9411106e-04 1.6009384e-05 3.5163619e-04) (0.0000000e+00 0.0000000e+00 0.0000000e+00)) ((5.2378057e-01 4.4954537e-01 -6.5055477e-03) (4.9063848e-05 6.6155441e-05 -2.6096319e-05) (0.0000000e+00 0.0000000e+00 0.0000000e+00))
44            	((2.9156893e+01 -3.2718306e+01 -2.8716484e+00) (3.8369307e-04 7.1136262e-05 3.8835388e-04) (0.0000000e+00 0.0000000e+00 0.0000000e+00)) ((5.2454277e-01 4.5011474e-01 -6.3865045e-03) (5.1713467e-05 6.9802838e-05 -2.9170524e-05) (0.0000000e+00 0.0000000e+00 0.0000000e+00))
45            	((2.9152195e+01 -3.2714953e+01 -2.8670802e+00) (3.7081269e-04 1.2401516e-04 4.2418680e-04) (0.0000000e+00 0.0000000e+00 0.0000000e+00)) ((5.2497657e-01 4.5024451e-01 -6.2697921e-03) (5.4322486e-05 7.3253125e-05 -3.1949769e-05) (0.0000000e+00 0.0000000e+00 0.0000000e+00))
46            	((2.9147761e+01 -3.2711904e+01 -2.8642976e+00) (3.5544221e-04 1.7555822e-04 4.5857362e-04) (0.0000000e+00 0.0000000e+00 0.0000000e+00)) ((5.2526280e-01 4.5021355e-01 -6.1479297e-03) (5.6797182e-05 7.6474803e-05 -3.4521828e-05) (0.0000000e+00 0.0000000e+00 0.0000000e+00))
47            	((2.9143648e+01 -3.2709463e+01 -2.8618670e+00) (3.3753665e-04 2.2676412e-04 4.9040740e-04) (0.0000000e+00 0.0000000e+00 0.0000000e+00)) ((5.2545982e-01 4.5021553e-01 -6.0094155e-03) (5.9014692e-05 7.9355891e-05 -3.6960311e-05) (0.0000000e+00 0.0000000e+00 0.0000000e+00))
48            	((2.9139876e+01 -3.2707758e+01 -2.8584005e+00) (3.1619894e-04 2.7497134e-04 5.1839784e-04) (0.0000000e+00 0.0000000e+00 0.0000000e+00)) ((5.2564059e-01 4.5040658e-01 -5.8471246e-03) (6.0938647e-05 8.1771118e-05 -3.8975260e-05) (0.0000000e+00 0.0000000e+00 0.0000000e+00))
49            	((2.9136453e+01 -3.2706426e+01 -2.8570994e+00) (2.9131723e-04 3.2171411e-04 5.4280135e-04) (0.0000000e+00 0.0000000e+00 0.0000000e+00)) ((5.2564965e-01 4.5041952e-01 -5.6831703e-03) (6.2566441e-05 8.3746268e-05 -4.0673760e-05) (0.0000000e+00 0.0000000e+00 0.0000000e+00))
50            	((2.9134131e+01 -3.2705827e+01 -2.8590853e+00) (2.6377179e-04 3.6715966e-04 5.6409385e-04) (0.0000000e+00 0.0000000e+00 0.0000000e+00)) ((5.2546459e-01 4.5010286e-01 -5.5424721e-03) (6.3963501e-05 8.5360021e-05 -4.2132035e-05) (0.0000000e+00 0.0000000e+00 0.0000000e+00))
51            	((2.9132527e+01 -3.2705761e+01 -2.8630896e+00) (2.3447221e-04 4.1314840e-04 5.8147034e-04) (0.0000000e+00 0.0000000e+00 0.0000000e+00)) ((5.2514256e-01 4.4958832e-01 -5.4127446e-03) (6.5012398e-05 8.6568985e-05 -4.3528719e-05) (0.0000000e+00 0.0000000e+00 0.0000000e+00))
52            	((2.9131259e+01 -3.2705976e+01 -2.8680997e+00) (2.0131405e-04 4.5847033e-04 5.9422728e-04) (0.0000000e+00 0.0000000e+00 0.0000000e+00)) ((5.2470914e-01 4.4901745e-01 -5.2876981e-03) (6.5694652e-05 8.7297782e-05 -4.4561155e-05) (0.0000000e+00 0.0000000e+00 0.0000000e+00))
53            	((2.9130158e+01 -3.2706331e+01 -2.8733400e+00) (1.6599456e-04 5.0442456e-04 6.0261619e-04) (0.0000000e+00 0.0000000e+00 0.0000000e+00)) ((5.2419553e-01 4.4848993e-01 -5.1654462e-03) (6.5993869e-05 8.7597782e-05 -4.5483842e-05) (0.0000000e+00 0.0000000e+00 0.0000000e+00))
54            	((2.9129287e+01 -3.2706880e+01 -2.8791507e+00) (1.2844241e-04 5.5161137e-04 6.1052260e-04) (0.0000000e+00 0.0000000e+00 0.0000000e+00)) ((5.2362027e-01 4.4793663e-01 -5.0477499e-03) (6.6239729e-05 8.7800526e-05 -4.6340267e-05) (0.0000000e+00 0.0000000e+00 0.0000000e+00))
55            	((2.9128782e+01 -3.2707654e+01 -2.8853375e+00) (8.8091734e-05 6.0226480e-04 6.1729114e-04) (0.0000000e+00 0.0000000e+00 0.0000000e+00)) ((5.2301187e-01 4.4736605e-01 -4.9413305e-03) (6.6352313e-05 8.7870035e-05 -4.7246807e-05) (0.0000000e+00 0.0000000e+00 0.0000000e+00))
56            	((2.9128626e+01 -3.2708613e+01 -2.8914989e+00) (4.4252996e-05 6.5623493e-04 6.2345420e-04) (0.0000000e+00 0.0000000e+00 0.0000000e+00)) ((5.2241638e-01 4.4680503e-01 -4.8451062e-03) (6.6381106e-05 8.7864535e-05 -4.8138263e-05) (0.0000000e+00 0.0000000e+00 0.0000000e+00))
57            	((2.9128641e+01 -3.2709691e+01 -2.8972766e+00) (-1.8023656e-06 7.1340195e-04 6.2851880e-04) (0.0000000e+00 0.0000000e+00 0.0000000e+00)) ((5.2186395e-01 4.4627027e-01 -4.7503116e-03) (6.6258045e-05 8.7754371e-05 -4.9082630e-05) (0.0000000e+00 0.0000000e+00 0.0000000e+00))
58            	((2.9128565e+01 -3.2710631e+01 -2.9026199e+00) (-4.9740900e-05 7.7460894e-04 6.3102617e-04) (0.0000000e+00 0.0000000e+00 0.0000000e+00)) ((5.2135505e-01 4.4575768e-01 -4.6568176e-03) (6.5832315e-05 8.7418230e-05 -5.0150262e-05) (0.0000000e+00 0.0000000e+00 0.0000000e+00))
59            	((2.9128445e+01 -3.2711567e+01 -2.9072811e+00) (-1.0070327e-04 8.3850956e-04 6.3148824e-04) (0.0000000e+00 0.0000000e+00 0.0000000e+00)) ((5.2089890e-01 4.4530824e-01 -4.5630933e-03) (6.5167906e-05 8.6862656e-05 -5.1158672e-05) (0.0000000e+00 0.0000000e+00 0.0000000e+00))
60            	((2.9128265e+01 -3.2712363e+01 -2.9113629e+00) (-1.5358855e-04 9.0582465e-04 6.2958837e-04) (0.0000000e+00 0.0000000e+00 0.0000000e+00)) ((5.2049443e-01 4.4490942e-01 -4.4759358e-03) (6.4183125e-05 8.6046932e-05 -5.2253382e-05) (0.0000000e+00 0.0000000e+00 0.0000000e+00))
61            	((2.9127909e+01 -3.2712922e+01 -2.9147865e+00) (-2.0788896e-04 9.7656187e-04 6.2640177e-04) (0.0000000e+00 0.0000000e+00 0.0000000e+00)) ((5.2013835e-01 4.4458341e-01 -4.3937067e-03) (6.2966499e-05 8.5072875e-05 -5.3492898e-05) (0.0000000e+00 0.0000000e+00 0.0000000e+00))
62            	((2.9127379e+01 -3.2713325e+01 -2.9174060e+00) (-2.6399202e-04 1.0496544e-03 6.2341643e-04) (0.0000000e+00 0.0000000e+00 0.0000000e+00)) ((5.1984985e-01 4.4432566e-01 -4.3112490e-03) (6.1672112e-05 8.4063645e-05 -5.4763116e-05) (0.0000000e+00 0.0000000e+00 0.0000000e+00))
63            	((2.9126770e+01 -3.2713612e+01 -2.9198074e+00) (-3.2140530e-04 1.1250786e-03 6.2099457e-04) (0.0000000e+00 0.0000000e+00 0.0000000e+00)) ((5.1957869e-01 4.4408805e-01 -4.2305097e-03) (6.0338176e-05 8.3055878e-05 -5.6106094e-05) (0.0000000e+00 0.0000000e+00 0.0000000e+00))
64            	((2.9126120e+01 -3.2713871e+01 -2.9221236e+00) (-3.8043751e-04 1.2021370e-03 6.1995450e-04) (0.0000000e+00 0.0000000e+00 0.0000000e+00)) ((5.1932795e-01 4.4385065e-01 -4.1477011e-03) (5.9055839e-05 8.2103966e-05 -5.7456468e-05) (0.0000000e+00 0.0000000e+00 0.0000000e+00))
65            	((2.9125387e+01 -3.2714088e+01 -2.9242178e+00) (-4.3986977e-04 1.2801648e-03 6.2006558e-04) (0.0000000e+00 0.0000000e+00 0.0000000e+00)) ((5.1911185e-01 4.4362516e-01 -4.0615932e-03) (5.7823204e-05 8.1192315e-05 -5.8872543e-05) (0.0000000e+00 0.0000000e+00 0.0000000e+00))
66            	((2.9124580e+01 -3.2714162e+01 -2.9258859e+00) (-4.9920200e-04 1.3586365e-03 6.2106131e-04) (0.0000000e+00 0.0000000e+00 0.0000000e+00)) ((5.1893743e-01 4.4343197e-01 -3.9796032e-03) (5.6629189e-05 8.0316082e-05 -6.0354584e-05) (0.0000000e+00 0.0000000e+00 0.0000000e+00))
67            	((2.9123686e+01 -3.2714217e+01 -2.9271516e+00) (-5.5834407e-04 1.4369056e-03 6.2286927e-04) (0.0000000e+00 0.0000000e+00 0.0000000e+00)) ((5.1880060e-01 4.4327027e-01 -3.8932363e-03) (5.5482030e-05 7.9455024e-05 -6.1837970e-05) (0.0000000e+00 0.0000000e+00 0.0000000e+00))
68            	((2.9122766e+01 -3.2714287e+01 -2.9280843e+00) (-6.1743878e-04 1.5141770e-03 6.2482672e-04) (0.0000000e+00 0.0000000e+00 0.0000000e+00)) ((5.1869298e-01 4.4313750e-01 -3.8047019e-03) (5.4318089e-05 7.8547115e-05 -6.3250669e-05) (0.0000000e+00 0.0000000e+00 0.0000000e+00))
69            	((2.9121979e+01 -3.2714369e+01 -2.9286215e+00) (-6.7655675e-04 1.5897491e-03 6.2665292e-04) (0.0000000e+00 0.0000000e+00 0.0000000e+00)) ((5.1861840e-01 4.4304282e-01 -3.7246224e-03) (5.3142952e-05 7.7563322e-05 -6.4527412e-05) (0.0000000e+00 0.0000000e+00 0.0000000e+00))
70            	((2.9121220e+01 -3.2714463e+01 -2.9289955e+00) (-7.3536769e-04 1.6634714e-03 6.2874610e-04) (0.0000000e+00 0.0000000e+00 0.0000000e+00)) ((5.1855576e-01 4.4296419e-01 -3.6455388e-03) (5.2008328e-05 7.6566036e-05 -6.5687093e-05) (0.0000000e+00 0.0000000e+00 0.0000000e+00))
71            	((2.9120479e+01 -3.2714597e+01 -2.9296489e+00) (-7.9295756e-04 1.7349560e-03 6.3071707e-04) (0.0000000e+00 0.0000000e+00 0.0000000e+00)) ((5.1846844e-01 4.4286365e-01 -3.5653784e-03) (5.0888602e-05 7.5539893e-05 -6.6777695e-05) (0.0000000e+00 0.0000000e+00 0.0000000e+00))
72            	((2.9119822e+01 -3.2714879e+01 -2.9305584e+00) (-8.4859149e-04 1.8036650e-03 6.3210180e-04) (0.0000000e+00 0.0000000e+00 0.0000000e+00)) ((5.1836390e-01 4.4274260e-01 -3.4814184e-03) (4.9749754e-05 7.4462691e-05 -6.7810281e-05) (0.0000000e+00 0.0000000e+00 0.0000000e+00))
73            	((2.9119272e+01 -3.2715324e+01 -2.9315398e+00) (-9.0227900e-04 1.8692662e-03 6.3252838e-04) (0.0000000e+00 0.0000000e+00 0.0000000e+00)) ((5.1825847e-01 4.4261674e-01 -3.3938039e-03) (4.8563343e-05 7.3301877e-05 -6.8753926e-05) (0.0000000e+00 0.0000000e+00 0.0000000e+00))
74            	((2.9118793e+01 -3.2715784e+01 -2.9322721e+00) (-9.5305898e-04 1.9321821e-03 6.3144916e-04) (0.0000000e+00 0.0000000e+00 0.0000000e+00)) ((5.1817619e-01 4.4251100e-01 -3.3105272e-03) (4.7267674e-05 7.2014543e-05 -6.9728889e-05) (0.0000000e+00 0.0000000e+00 0.0000000e+00))
75            	((2.9118369e+01 -3.2716253e+01 -2.9326112e+00) (-1.0010105e-03 1.9920566e-03 6.2857130e-04) (0.0000000e+00 0.0000000e+00 0.0000000e+00)) ((5.1812750e-01 4.4243486e-01 -3.2314512e-03) (4.5842286e-05 7.0571241e-05 -7.0697318e-05) (0.0000000e+00 0.0000000e+00 0.0000000e+00))
76            	((2.9118060e+01 -3.2716783e+01 -2.9328321e+00) (-1.0465149e-03 2.0486526e-03 6.2384765e-04) (0.0000000e+00 0.0000000e+00 0.0000000e+00)) ((5.1808986e-01 4.4236730e-01 -3.1565561e-03) (4.4288091e-05 6.8962232e-05 -7.1593059e-05) (0.0000000e+00 0.0000000e+00 0.0000000e+00))
77            	((2.9117887e+01 -3.2717426e+01 -2.9330854e+00) (-1.0895518e-03 2.1021116e-03 6.1713817e-04) (0.0000000e+00 0.0000000e+00 0.0000000e+00)) ((5.1804937e-01 4.4230023e-01 -3.0831200e-03) (4.2585940e-05 6.7187383e-05 -7.2432290e-05) (0.0000000e+00 0.0000000e+00 0.0000000e+00))
78            	((2.9117820e+01 -3.2718160e+01 -2.9332703e+00) (-1.1299069e-03 2.1525474e-03 6.0848300e-04) (0.0000000e+00 0.0000000e+00 0.0000000e+00)) ((5.1801427e-01 4.4224201e-01 -3.0107464e-03) (4.0741238e-05 6.5250326e-05 -7.3248659e-05) (0.0000000e+00 0.0000000e+00 0.0000000e+00))
79            	((2.9117842e+01 -3.2718969e+01 -2.9334705e+00) (-1.1679274e-03 2.2000552e-03 5.9776488e-04) (0.0000000e+00 0.0000000e+00 0.0000000e+00)) ((5.1797725e-01 4.4218612e-01 -2.9406522e-03) (3.8735692e-05 6.3138378e-05 -7.4021473e-05) (0.0000000e+00 0.0000000e+00 0.0000000e+00))
80            	((2.9117955e+01 -3.2719900e+01 -2.9337400e+00) (-1.2036634e-03 2.2447576e-03 5.8504823e-04) (0.0000000e+00 0.0000000e+00 0.0000000e+00)) ((5.1793422e-01 4.4212743e-01 -2.8698603e-03) (3.6573452e-05 6.0862300e-05 -7.4756662e-05) (0.0000000e+00 0.0000000e+00 0.0000000e+00))
81            	((2.9118135e+01 -3.2720903e+01 -2.9339990e+00) (-1.2371922e-03 2.2868079e-03 5.7032816e-04) (0.0000000e+00 0.0000000e+00 0.0000000e+00)) ((5.1789172e-01 4.4207059e-01 -2.7993384e-03) (3.4263063e-05 5.8422794e-05 -7.5459257e-05) (0.0000000e+00 0.0000000e+00 0.0000000e+00))
82            	((2.9118399e+01 -3.2721961e+01 -2.9340011e+00) (-1.2685171e-03 2.3262757e-03 5.5393087e-04) (0.0000000e+00 0.0000000e+00 0.0000000e+00)) ((5.1786912e-01 4.4203558e-01 -2.7310217e-03) (3.1831319e-05 5.5854158e-05 -7.6133002e-05) (0.0000000e+00 0.0000000e+00 0.0000000e+00))
83            	((2.9118720e+01 -3.2723082e+01 -2.9338540e+00) (-1.2977982e-03 2.3638326e-03 5.3595847e-04) (0.0000000e+00 0.0000000e+00 0.0000000e+00)) ((5.1785954e-01 4.4201293e-01 -2.6631168e-03) (2.9274789e-05 5.3165272e-05 -7.6830531e-05) (0.0000000e+00 0.0000000e+00 0.0000000e+00))
84            	((2.9119065e+01 -3.2724234e+01 -2.9337413e+00) (-1.3257133e-03 2.3991970e-03 5.1686087e-04) (0.0000000e+00 0.0000000e+00 0.0000000e+00)) ((5.1784915e-01 4.4198824e-01 -2.5956254e-03) (2.6647021e-05 5.0393151e-05 -7.7454740e-05) (0.0000000e+00 0.0000000e+00 0.0000000e+00))
85            	((2.9119383e+01 -3.2725345e+01 -2.9336204e+00) (-1.3519624e-03 2.4327210e-03 4.9736688e-04) (0.0000000e+00 0.0000000e+00 0.0000000e+00)) ((5.1783982e-01 4.4196312e-01 -2.5299979e-03) (2.4012246e-05 4.7628823e-05 -7.8070357e-05) (0.0000000e+00 0.0000000e+00 0.0000000e+00))
86            	((2.9119701e+01 -3.2726430e+01 -2.9335264e+00) (-1.3767556e-03 2.4644714e-03 4.7845232e-04) (0.0000000e+00 0.0000000e+00 0.0000000e+00)) ((5.1782763e-01 4.4193482e-01 -2.4658921e-03) (2.1475584e-05 4.4964421e-05 -7.8665612e-05) (0.0000000e+00 0.0000000e+00 0.0000000e+00))
87            	((2.9120047e+01 -3.2727530e+01 -2.9333821e+00) (-1.4006308e-03 2.4946239e-03 4.5998365e-04) (0.0000000e+00 0.0000000e+00 0.0000000e+00)) ((5.1781926e-01 4.4191147e-01 -2.4026910e-03) (1.9031389e-05 4.2366166e-05 -7.9206924e-05) (0.0000000e+00 0.0000000e+00 0.0000000e+00))
88            	((2.9120464e+01 -3.2728697e+01 -2.9331689e+00) (-1.4232271e-03 2.5240086e-03 4.4199545e-04) (0.0000000e+00 0.0000000e+00 0.0000000e+00)) ((5.1781623e-01 4.4189500e-01 -2.3402338e-03) (1.6659629e-05 3.9851462e-05 -7.9818420e-05) (0.0000000e+00 0.0000000e+00 0.0000000e+00))
89            	((2.9120931e+01 -3.2729902e+01 -2.9328871e+00) (-1.4450140e-03 2.5525125e-03 4.2456721e-04) (0.0000000e+00 0.0000000e+00 0.0000000e+00)) ((5.1781597e-01 4.4188362e-01 -2.2791575e-03) (1.4368562e-05 3.7418101e-05 -8.0441440e-05) (0.0000000e+00 0.0000000e+00 0.0000000e+00))
90            	((2.9121446e+01 -3.2731117e+01 -2.9326292e+00) (-1.4665385e-03 2.5801003e-03 4.0758724e-04) (0.0000000e+00 0.0000000e+00 0.0000000e+00)) ((5.1781036e-01 4.4186941e-01 -2.2212492e-03) (1.2146398e-05 3.5039292e-05 -8.1016714e-05) (0.0000000e+00 0.0000000e+00 0.0000000e+00))
91            	((2.9121981e+01 -3.2732371e+01 -2.9324295e+00) (-1.4875916e-03 2.6070084e-03 3.9107958e-04) (0.0000000e+00 0.0000000e+00 0.0000000e+00)) ((5.1780014e-01 4.4184957e-01 -2.1629823e-03) (9.9955260e-06 3.2720008e-05 -8.1587761e-05) (0.0000000e+00 0.0000000e+00 0.0000000e+00))
92            	((2.9122573e+01 -3.2733706e+01 -2.9323577e+00) (-1.5082038e-03 2.6333512e-03 3.7506864e-04) (0.0000000e+00 0.0000000e+00 0.0000000e+00)) ((5.1778041e-01 4.4182136e-01 -2.1036303e-03) (7.9102478e-06 3.0467955e-05 -8.2170455e-05) (0.0000000e+00 0.0000000e+00 0.0000000e+00))
93            	((2.9123180e+01 -3.2735033e+01 -2.9323209e+00) (-1.5284140e-03 2.6592339e-03 3.5937261e-04) (0.0000000e+00 0.0000000e+00 0.0000000e+00)) ((5.1775786e-01 4.4179101e-01 -2.0457999e-03) (5.8826622e-06 2.8249798e-05 -8.2758116e-05) (0.0000000e+00 0.0000000e+00 0.0000000e+00))
94            	((2.9123783e+01 -3.2736322e+01 -2.9322592e+00) (-1.5486827e-03 2.6847246e-03 3.4441723e-04) (0.0000000e+00 0.0000000e+00 0.0000000e+00)) ((5.1773620e-01 4.4176276e-01 -1.9901260e-03) (3.9506297e-06 2.6107238e-05 -8.3311117e-05) (0.0000000e+00 0.0000000e+00 0.0000000e+00))
95            	((2.9124417e+01 -3.2737612e+01 -2.9322669e+00) (-1.5686157e-03 2.7100508e-03 3.3028941e-04) (0.0000000e+00 0.0000000e+00 0.0000000e+00)) ((5.1770776e-01 4.4172907e-01 -1.9367408e-03) (2.1063738e-06 2.4069269e-05 -8.3898839e-05) (0.0000000e+00 0.0000000e+00 0.0000000e+00))
96            	((2.9125072e+01 -3.2738917e+01 -2.9322472e+00) (-1.5885356e-03 2.7356017e-03 3.1707600e-04) (0.0000000e+00 0.0000000e+00 0.0000000e+00)) ((5.1768054e-01 4.4169827e-01 -1.8841103e-03) (3.4227771e-07 2.2137626e-05 -8.4528228e-05) (0.0000000e+00 0.0000000e+00 0.0000000e+00))
97            	((2.9125726e+01 -3.2740226e+01 -2.9321252e+00) (-1.6084752e-03 2.7616063e-03 3.0475887e-04) (0.0000000e+00 0.0000000e+00 0.0000000e+00)) ((5.1766081e-01 4.4167477e-01 -1.8315451e-03) (-1.3410391e-06 2.0297135e-05 -8.5205159e-05) (0.0000000e+00 0.0000000e+00 0.0000000e+00))
98            	((2.9126395e+01 -3.2741553e+01 -2.9319922e+00) (-1.6284250e-03 2.7880277e-03 2.9340668e-04) (0.0000000e+00 0.0000000e+00 0.0000000e+00)) ((5.1764293e-01 4.4165069e-01 -1.7791150e-03) (-2.9391514e-06 1.8559982e-05 -8.5924072e-05) (0.0000000e+00 0.0000000e+00 0.0000000e+00))
99            	((2.9127074e+01 -3.2742913e+01 -2.9318782e+00) (-1.6484046e-03 2.8145946e-03 2.8319498e-04) (0.0000000e+00 0.0000000e+00 0.0000000e+00)) ((5.1762669e-01 4.4162383e-01 -1.7252673e-03) (-4.4343987e-06 1.6955124e-05 -8.6667313e-05) (0.0000000e+00 0.0000000e+00 0.0000000e+00))
100           	((2.9127718e+01 -3.2744266e+01 -2.9317348e+00) (-1.6686535e-03 2.8414216e-03 2.7438774e-04) (0.0000000e+00 0.0000000e+00 0.0000000e+00)) ((5.1761257e-01 4.4160031e-01 -1.6702093e-03) (-5.7975214e-06 1.5500239e-05 -8.7411541e-05) (0.0000000e+00 0.0000000e+00 0.0000000e+00))
101           	((2.9128372e+01 -3.2745614e+01 -2.9315596e+00) (-1.6888400e-03 2.8683005e-03 2.6612467e-04) (0.0000000e+00 0.0000000e+00 0.0000000e+00)) ((5.1759859e-01 4.4158164e-01 -1.6170460e-03) (-7.1338418e-06 1.4153344e-05 -8.8206711e-05) (0.0000000e+00 0.0000000e+00 0.0000000e+00))
102           	((2.9129049e+01 -3.2746934e+01 -2.9312984e+00) (-1.7094001e-03 2.8954744e-03 2.5953770e-04) (0.0000000e+00 0.0000000e+00 0.0000000e+00)) ((5.1759072e-01 4.4157157e-01 -1.5676646e-03) (-8.3119121e-06 1.2995216e-05 -8.9003554e-05) (0.0000000e+00 0.0000000e+00 0.0000000e+00))
103           	((2.9129705e+01 -3.2748229e+01 -2.9309435e+00) (-1.7300968e-03 2.9231062e-03 2.5430085e-04) (0.0000000e+00 0.0000000e+00 0.0000000e+00)) ((5.1759090e-01 4.4156906e-01 -1.5187611e-03) (-9.3708050e-06 1.1993418e-05 -8.9847744e-05) (0.0000000e+00 0.0000000e+00 0.0000000e+00))