# Forces      
# CofR        : (0.0000000e+00 0.0000000e+00 0.0000000e+00)
# Time        forces(pressure viscous porous) moment(pressure viscous porous)
2307          	((-6.1589124e+00 -1.4999778e+04 2.4285054e-03) (1.8950730e-02 2.4475938e-02 -1.4417035e-01) (0.0000000e+00 0.0000000e+00 0.0000000e+00)) ((6.0439639e+02 -8.0491371e-01 5.6109081e-03) (-3.2032927e-03 -2.8471243e-03 -1.4580054e-03) (0.0000000e+00 0.0000000e+00 0.0000000e+00))
2308          	((-5.9249969e+00 -1.4999920e+04 2.4300080e-03) (1.8920138e-02 2.4477709e-02 -1.4415714e-01) (0.0000000e+00 0.0000000e+00 0.0000000e+00)) ((6.0442514e+02 -7.7112725e-01 5.6860743e-03) (-3.2023958e-03 -2.8355713e-03 -1.4557043e-03) (0.0000000e+00 0.0000000e+00 0.0000000e+00))
2309          	((-5.4731379e+00 -1.4999980e+04 2.4315286e-03) (1.8902451e-02 2.4481076e-02 -1.4414185e-01) (0.0000000e+00 0.0000000e+00 0.0000000e+00)) ((6.0444744e+02 -6.8401466e-01 5.7853680e-03) (-3.2018112e-03 -2.8249875e-03 -1.4544785e-03) (0.0000000e+00 0.0000000e+00 0.0000000e+00))
2310          	((-5.7163672e+00 -1.5000281e+04 2.4309922e-03) (1.8880231e-02 2.4481756e-02 -1.4412214e-01) (0.0000000e+00 0.0000000e+00 0.0000000e+00)) ((6.0445817e+02 -7.2474407e-01 5.7519111e-03) (-3.2013149e-03 -2.8140219e-03 -1.4534735e-03) (0.0000000e+00 0.0000000e+00 0.0000000e+00))
2311          	((-6.1697905e+00 -1.5000007e+04 2.4249186e-03) (1.8841902e-02 2.4474621e-02 -1.4408658e-01) (0.0000000e+00 0.0000000e+00 0.0000000e+00)) ((6.0442569e+02 -7.8571897e-01 5.6485135e-03) (-3.1998969e-03 -2.8030026e-03 -1.4515179e-03) (0.0000000e+00 0.0000000e+00 0.0000000e+00))
2312          	((-6.2190303e+00 -1.4999989e+04 2.4275593e-03) (1.8796996e-02 2.4465939e-02 -1.4404140e-01) (0.0000000e+00 0.0000000e+00 0.0000000e+00)) ((6.0442259e+02 -8.0652072e-01 5.6012711e-03) (-3.1978929e-03 -2.7932957e-03 -1.4492502e-03) (0.0000000e+00 0.0000000e+00 0.0000000e+00))
2313          	((-6.3758222e+00 -1.5000041e+04 2.4275991e-03) (1.8759434e-02 2.4453618e-02 -1.4398746e-01) (0.0000000e+00 0.0000000e+00 0.0000000e+00)) ((6.0441542e+02 -8.3306724e-01 5.4954935e-03) (-3.1951970e-03 -2.7844606e-03 -1.4468951e-03) (0.0000000e+00 0.0000000e+00 0.0000000e+00))
2314          	((-5.8280793e+00 -1.5000069e+04 2.4297635e-03) (1.8736053e-02 2.4449522e-02 -1.4393379e-01) (0.0000000e+00 0.0000000e+00 0.0000000e+00)) ((6.0445014e+02 -7.3700516e-01 5.6717208e-03) (-3.1929786e-03 -2.7765285e-03 -1.4453739e-03) (0.0000000e+00 0.0000000e+00 0.0000000e+00))
2315          	((-5.4726458e+00 -1.5000048e+04 2.4298068e-03) (1.8712394e-02 2.4445024e-02 -1.4387757e-01) (0.0000000e+00 0.0000000e+00 0.0000000e+00)) ((6.0443492e+02 -6.7612126e-01 5.8537044e-03) (-3.1905128e-03 -2.7693186e-03 -1.4447619e-03) (0.0000000e+00 0.0000000e+00 0.0000000e+00))
2316          	((-5.2454241e+00 -1.4999505e+04 2.4286704e-03) (1.8696846e-02 2.4447627e-02 -1.4381438e-01) (0.0000000e+00 0.0000000e+00 0.0000000e+00)) ((6.0436906e+02 -6.3716912e-01 5.9135415e-03) (-3.1871503e-03 -2.7630618e-03 -1.4450500e-03) (0.0000000e+00 0.0000000e+00 0.0000000e+00))
2317          	((-4.9630165e+00 -1.4999407e+04 2.4286085e-03) (1.8686056e-02 2.4446030e-02 -1.4374780e-01) (0.0000000e+00 0.0000000e+00 0.0000000e+00)) ((6.0436164e+02 -5.9925908e-01 5.9928202e-03) (-3.1832035e-03 -2.7576797e-03 -1.4461028e-03) (0.0000000e+00 0.0000000e+00 0.0000000e+00))
2318          	((-5.5499364e+00 -1.5000416e+04 2.4295661e-03) (1.8673827e-02 2.4433218e-02 -1.4369388e-01) (0.0000000e+00 0.0000000e+00 0.0000000e+00)) ((6.0445962e+02 -6.8883322e-01 5.7833361e-03) (-3.1816423e-03 -2.7534803e-03 -1.4464463e-03) (0.0000000e+00 0.0000000e+00 0.0000000e+00))
2319          	((-6.0568785e+00 -1.5000112e+04 2.4291359e-03) (1.8661047e-02 2.4420798e-02 -1.4364437e-01) (0.0000000e+00 0.0000000e+00 0.0000000e+00)) ((6.0444126e+02 -7.8649650e-01 5.6555056e-03) (-3.1806439e-03 -2.7502760e-03 -1.4462090e-03) (0.0000000e+00 0.0000000e+00 0.0000000e+00))
2320          	((-6.3246850e+00 -1.4999728e+04 2.4275874e-03) (1.8656334e-02 2.4419013e-02 -1.4359205e-01) (0.0000000e+00 0.0000000e+00 0.0000000e+00)) ((6.0440532e+02 -8.2921959e-01 5.5596417e-03) (-3.1785486e-03 -2.7478578e-03 -1.4462165e-03) (0.0000000e+00 0.0000000e+00 0.0000000e+00))
2321          	((-6.4333580e+00 -1.4999707e+04 2.4225673e-03) (1.8653504e-02 2.4419093e-02 -1.4353649e-01) (0.0000000e+00 0.0000000e+00 0.0000000e+00)) ((6.0439677e+02 -8.2369851e-01 5.5329434e-03) (-3.1759459e-03 -2.7459048e-03 -1.4463022e-03) (0.0000000e+00 0.0000000e+00 0.0000000e+00))
2322          	((-5.9673069e+00 -1.5000474e+04 2.4280067e-03) (1.8650921e-02 2.4418849e-02 -1.4349137e-01) (0.0000000e+00 0.0000000e+00 0.0000000e+00)) ((6.0446467e+02 -7.5798685e-01 5.6500295e-03) (-3.1744614e-03 -2.7452551e-03 -1.4470304e-03) (0.0000000e+00 0.0000000e+00 0.0000000e+00))
2323          	((-5.6102454e+00 -1.5000830e+04 2.4312132e-03) (1.8655560e-02 2.4415063e-02 -1.4345597e-01) (0.0000000e+00 0.0000000e+00 0.0000000e+00)) ((6.0450332e+02 -7.0369085e-01 5.7288608e-03) (-3.1743768e-03 -2.7458063e-03 -1.4488360e-03) (0.0000000e+00 0.0000000e+00 0.0000000e+00))
2324          	((-5.5044650e+00 -1.5000728e+04 2.4316100e-03) (1.8671742e-02 2.4407092e-02 -1.4342821e-01) (0.0000000e+00 0.0000000e+00 0.0000000e+00)) ((6.0450219e+02 -6.9359638e-01 5.7546092e-03) (-3.1747353e-03 -2.7484768e-03 -1.4508139e-03) (0.0000000e+00 0.0000000e+00 0.0000000e+00))
2325          	((-5.9041077e+00 -1.4999751e+04 2.4281398e-03) (1.8689287e-02 2.4407776e-02 -1.4339479e-01) (0.0000000e+00 0.0000000e+00 0.0000000e+00)) ((6.0441805e+02 -7.6291564e-01 5.6002037e-03) (-3.1730929e-03 -2.7527090e-03 -1.4524707e-03) (0.0000000e+00 0.0000000e+00 0.0000000e+00))
2326          	((-6.0841528e+00 -1.4999857e+04 2.4282797e-03) (1.8713159e-02 2.4413594e-02 -1.4336831e-01) (0.0000000e+00 0.0000000e+00 0.0000000e+00)) ((6.0441522e+02 -7.9994807e-01 5.5974439e-03) (-3.1715193e-03 -2.7580239e-03 -1.4544942e-03) (0.0000000e+00 0.0000000e+00 0.0000000e+00))
2327          	((-5.9265878e+00 -1.4999852e+04 2.4287129e-03) (1.8741145e-02 2.4421400e-02 -1.4335638e-01) (0.0000000e+00 0.0000000e+00 0.0000000e+00)) ((6.0441462e+02 -7.7340077e-01 5.6408036e-03) (-3.1708001e-03 -2.7644300e-03 -1.4570717e-03) (0.0000000e+00 0.0000000e+00 0.0000000e+00))
2328          	((-5.6802486e+00 -1.4999923e+04 2.4292000e-03) (1.8778110e-02 2.4429703e-02 -1.4335872e-01) (0.0000000e+00 0.0000000e+00 0.0000000e+00)) ((6.0441466e+02 -7.1954969e-01 5.7201317e-03) (-3.1703469e-03 -2.7714908e-03 -1.4602874e-03) (0.0000000e+00 0.0000000e+00 0.0000000e+00))
2329          	((-5.5314100e+00 -1.4999900e+04 2.4294506e-03) (1.8819693e-02 2.4434350e-02 -1.4336852e-01) (0.0000000e+00 0.0000000e+00 0.0000000e+00)) ((6.0441926e+02 -6.8604833e-01 5.7346111e-03) (-3.1703962e-03 -2.7796562e-03 -1.4643480e-03) (0.0000000e+00 0.0000000e+00 0.0000000e+00))
2330          	((-5.8743275e+00 -1.5000371e+04 2.4298709e-03) (1.8862195e-02 2.4435099e-02 -1.4338667e-01) (0.0000000e+00 0.0000000e+00 0.0000000e+00)) ((6.0447226e+02 -7.5234866e-01 5.6332848e-03) (-3.1716653e-03 -2.7887343e-03 -1.4681711e-03) (0.0000000e+00 0.0000000e+00 0.0000000e+00))
2331          	((-6.4252785e+00 -1.4999856e+04 2.4238016e-03) (1.8900008e-02 2.4432336e-02 -1.4339632e-01) (0.0000000e+00 0.0000000e+00 0.0000000e+00)) ((6.0441518e+02 -8.2222476e-01 5.4752042e-03) (-3.1722412e-03 -2.7986010e-03 -1.4711026e-03) (0.0000000e+00 0.0000000e+00 0.0000000e+00))
2332          	((-5.6668435e+00 -1.4999373e+04 2.4272597e-03) (1.8950050e-02 2.4431541e-02 -1.4339456e-01) (0.0000000e+00 0.0000000e+00 0.0000000e+00)) ((6.0435512e+02 -7.1809484e-01 5.6390261e-03) (-3.1710300e-03 -2.8098011e-03 -1.4745691e-03) (0.0000000e+00 0.0000000e+00 0.0000000e+00))
2333          	((-5.5606153e+00 -1.5000493e+04 2.4319038e-03) (1.9008733e-02 2.4427807e-02 -1.4340433e-01) (0.0000000e+00 0.0000000e+00 0.0000000e+00)) ((6.0447176e+02 -7.2246350e-01 5.6980214e-03) (-3.1715081e-03 -2.8224306e-03 -1.4787052e-03) (0.0000000e+00 0.0000000e+00 0.0000000e+00))
2334          	((-5.5036218e+00 -1.5000588e+04 2.4325492e-03) (1.9073518e-02 2.4423350e-02 -1.4342414e-01) (0.0000000e+00 0.0000000e+00 0.0000000e+00)) ((6.0448844e+02 -7.1314818e-01 5.7042218e-03) (-3.1735033e-03 -2.8361035e-03 -1.4830271e-03) (0.0000000e+00 0.0000000e+00 0.0000000e+00))
2335          	((-5.9703816e+00 -1.4999949e+04 2.4304423e-03) (1.9133575e-02 2.4421267e-02 -1.4343723e-01) (0.0000000e+00 0.0000000e+00 0.0000000e+00)) ((6.0443916e+02 -7.9117073e-01 5.5834180e-03) (-3.1748615e-03 -2.8501954e-03 -1.4875809e-03) (0.0000000e+00 0.0000000e+00 0.0000000e+00))
2336          	((-5.8859445e+00 -1.5000370e+04 2.4314326e-03) (1.9190284e-02 2.4414704e-02 -1.4344518e-01) (0.0000000e+00 0.0000000e+00 0.0000000e+00)) ((6.0447864e+02 -7.7644788e-01 5.6019638e-03) (-3.1766768e-03 -2.8647696e-03 -1.4923786e-03) (0.0000000e+00 0.0000000e+00 0.0000000e+00))
2337          	((-6.3884555e+00 -1.5000323e+04 2.4288278e-03) (1.9247702e-02 2.4402966e-02 -1.4345507e-01) (0.0000000e+00 0.0000000e+00 0.0000000e+00)) ((6.0446529e+02 -8.6076487e-01 5.4631097e-03) (-3.1789177e-03 -2.8797892e-03 -1.4968772e-03) (0.0000000e+00 0.0000000e+00 0.0000000e+00))
2338          	((-6.4211325e+00 -1.4999820e+04 2.4265522e-03) (1.9312445e-02 2.4386911e-02 -1.4345319e-01) (0.0000000e+00 0.0000000e+00 0.0000000e+00)) ((6.0441972e+02 -8.5575689e-01 5.4037514e-03) (-3.1797694e-03 -2.8955137e-03 -1.5009167e-03) (0.0000000e+00 0.0000000e+00 0.0000000e+00))
2339          	((-5.5526593e+00 -1.4999720e+04 2.4289688e-03) (1.9379288e-02 2.4367092e-02 -1.4344361e-01) (0.0000000e+00 0.0000000e+00 0.0000000e+00)) ((6.0441268e+02 -7.1961469e-01 5.7306339e-03) (-3.1793411e-03 -2.9122694e-03 -1.5056830e-03) (0.0000000e+00 0.0000000e+00 0.0000000e+00))
2340          	((-5.0731423e+00 -1.4999970e+04 2.4322665e-03) (1.9443828e-02 2.4354187e-02 -1.4343034e-01) (0.0000000e+00 0.0000000e+00 0.0000000e+00)) ((6.0442897e+02 -6.5158181e-01 5.9036930e-03) (-3.1788793e-03 -2.9288808e-03 -1.5111925e-03) (0.0000000e+00 0.0000000e+00 0.0000000e+00))
2341          	((-5.2896821e+00 -1.5000174e+04 2.4323295e-03) (1.9502321e-02 2.4343917e-02 -1.4342296e-01) (0.0000000e+00 0.0000000e+00 0.0000000e+00)) ((6.0444415e+02 -6.7591222e-01 5.8184390e-03) (-3.1794258e-03 -2.9438727e-03 -1.5166698e-03) (0.0000000e+00 0.0000000e+00 0.0000000e+00))
2342          	((-6.2197271e+00 -1.4999413e+04 2.4247374e-03) (1.9546811e-02 2.4336500e-02 -1.4340719e-01) (0.0000000e+00 0.0000000e+00 0.0000000e+00)) ((6.0437768e+02 -8.1219073e-01 5.5471205e-03) (-3.1792860e-03 -2.9571023e-03 -1.5212541e-03) (0.0000000e+00 0.0000000e+00 0.0000000e+00))
2343          	((-6.3019369e+00 -1.4999796e+04 2.4286523e-03) (1.9589968e-02 2.4330641e-02 -1.4339380e-01) (0.0000000e+00 0.0000000e+00 0.0000000e+00)) ((6.0441705e+02 -8.4307590e-01 5.5105698e-03) (-3.1792965e-03 -2.9698734e-03 -1.5253379e-03) (0.0000000e+00 0.0000000e+00 0.0000000e+00))
2344          	((-5.9502799e+00 -1.5000042e+04 2.4308979e-03) (1.9634967e-02 2.4320703e-02 -1.4337596e-01) (0.0000000e+00 0.0000000e+00 0.0000000e+00)) ((6.0444189e+02 -7.9626387e-01 5.5685141e-03) (-3.1796162e-03 -2.9829810e-03 -1.5292625e-03) (0.0000000e+00 0.0000000e+00 0.0000000e+00))
2345          	((-5.8973798e+00 -1.5000239e+04 2.4308500e-03) (1.9677663e-02 2.4304141e-02 -1.4335217e-01) (0.0000000e+00 0.0000000e+00 0.0000000e+00)) ((6.0445946e+02 -7.8944694e-01 5.5637598e-03) (-3.1797654e-03 -2.9950464e-03 -1.5327151e-03) (0.0000000e+00 0.0000000e+00 0.0000000e+00))
2346          	((-5.7707505e+00 -1.5000256e+04 2.4312280e-03) (1.9714443e-02 2.4290193e-02 -1.4332236e-01) (0.0000000e+00 0.0000000e+00 0.0000000e+00)) ((6.0447385e+02 -7.6407033e-01 5.6325369e-03) (-3.1801769e-03 -3.0055853e-03 -1.5351928e-03) (0.0000000e+00 0.0000000e+00 0.0000000e+00))
2347          	((-5.9443877e+00 -1.4999816e+04 2.4305861e-03) (1.9744996e-02 2.4289058e-02 -1.4328600e-01) (0.0000000e+00 0.0000000e+00 0.0000000e+00)) ((6.0444902e+02 -7.8944745e-01 5.6059617e-03) (-3.1798426e-03 -3.0142632e-03 -1.5370516e-03) (0.0000000e+00 0.0000000e+00 0.0000000e+00))
2348          	((-5.5218383e+00 -1.4999978e+04 2.4315795e-03) (1.9771452e-02 2.4271464e-02 -1.4324378e-01) (0.0000000e+00 0.0000000e+00 0.0000000e+00)) ((6.0444737e+02 -7.3383033e-01 5.7720159e-03) (-3.1788938e-03 -3.0220065e-03 -1.5394879e-03) (0.0000000e+00 0.0000000e+00 0.0000000e+00))
2349          	((-5.2319718e+00 -1.5000141e+04 2.4317596e-03) (1.9794600e-02 2.4242170e-02 -1.4320415e-01) (0.0000000e+00 0.0000000e+00 0.0000000e+00)) ((6.0445241e+02 -6.8248312e-01 5.8694151e-03) (-3.1780356e-03 -3.0292949e-03 -1.5421925e-03) (0.0000000e+00 0.0000000e+00 0.0000000e+00))
2350          	((-5.6557081e+00 -1.5000177e+04 2.4304532e-03) (1.9817172e-02 2.4222834e-02 -1.4316783e-01) (0.0000000e+00 0.0000000e+00 0.0000000e+00)) ((6.0446064e+02 -7.4060697e-01 5.6381751e-03) (-3.1776001e-03 -3.0357070e-03 -1.5442404e-03) (0.0000000e+00 0.0000000e+00 0.0000000e+00))
2351          	((-6.1170130e+00 -1.5000102e+04 2.4290345e-03) (1.9830851e-02 2.4205446e-02 -1.4312992e-01) (0.0000000e+00 0.0000000e+00 0.0000000e+00)) ((6.0444462e+02 -8.1285166e-01 5.5069836e-03) (-3.1769800e-03 -3.0403153e-03 -1.5447931e-03) (0.0000000e+00 0.0000000e+00 0.0000000e+00))
2352          	((-6.6715691e+00 -1.4999444e+04 2.4233695e-03) (1.9835927e-02 2.4193252e-02 -1.4307853e-01) (0.0000000e+00 0.0000000e+00 0.0000000e+00)) ((6.0437777e+02 -9.0813492e-01 5.4083203e-03) (-3.1748176e-03 -3.0427293e-03 -1.5441003e-03) (0.0000000e+00 0.0000000e+00 0.0000000e+00))
2353          	((-6.3338972e+00 -1.4999942e+04 2.4280197e-03) (1.9837926e-02 2.4186758e-02 -1.4302570e-01) (0.0000000e+00 0.0000000e+00 0.0000000e+00)) ((6.0443909e+02 -8.6665710e-01 5.5043799e-03) (-3.1726454e-03 -3.0440335e-03 -1.5432378e-03) (0.0000000e+00 0.0000000e+00 0.0000000e+00))
2354          	((-5.1302127e+00 -1.5000050e+04 2.4320963e-03) (1.9850633e-02 2.4173157e-02 -1.4297571e-01) (0.0000000e+00 0.0000000e+00 0.0000000e+00)) ((6.0444152e+02 -6.7538743e-01 5.8252237e-03) (-3.1710358e-03 -3.0448193e-03 -1.5434072e-03) (0.0000000e+00 0.0000000e+00 0.0000000e+00))
2355          	((-4.8554619e+00 -1.4999908e+04 2.4319887e-03) (1.9861707e-02 2.4154329e-02 -1.4293108e-01) (0.0000000e+00 0.0000000e+00 0.0000000e+00)) ((6.0441696e+02 -6.2164263e-01 5.9927576e-03) (-3.1684571e-03 -3.0454968e-03 -1.5444306e-03) (0.0000000e+00 0.0000000e+00 0.0000000e+00))
2356          	((-5.2965608e+00 -1.5000155e+04 2.4315264e-03) (1.9863302e-02 2.4137743e-02 -1.4289642e-01) (0.0000000e+00 0.0000000e+00 0.0000000e+00)) ((6.0444901e+02 -6.8372869e-01 5.8221882e-03) (-3.1667688e-03 -3.0449006e-03 -1.5450227e-03) (0.0000000e+00 0.0000000e+00 0.0000000e+00))
2357          	((-5.5919088e+00 -1.5000200e+04 2.4311902e-03) (1.9857079e-02 2.4126588e-02 -1.4286665e-01) (0.0000000e+00 0.0000000e+00 0.0000000e+00)) ((6.0446388e+02 -7.3113838e-01 5.7097480e-03) (-3.1659131e-03 -3.0432656e-03 -1.5445907e-03) (0.0000000e+00 0.0000000e+00 0.0000000e+00))
2358          	((-6.2984576e+00 -1.4999955e+04 2.4286858e-03) (1.9846720e-02 2.4117756e-02 -1.4284015e-01) (0.0000000e+00 0.0000000e+00 0.0000000e+00)) ((6.0443735e+02 -8.6396966e-01 5.4891661e-03) (-3.1644076e-03 -3.0406379e-03 -1.5426508e-03) (0.0000000e+00 0.0000000e+00 0.0000000e+00))
2359          	((-6.7507526e+00 -1.4999779e+04 2.4260485e-03) (1.9829153e-02 2.4108208e-02 -1.4281456e-01) (0.0000000e+00 0.0000000e+00 0.0000000e+00)) ((6.0441442e+02 -9.4301771e-01 5.3452982e-03) (-3.1618951e-03 -3.0368643e-03 -1.5397728e-03) (0.0000000e+00 0.0000000e+00 0.0000000e+00))
2360          	((-6.1040386e+00 -1.5000050e+04 2.4293640e-03) (1.9814965e-02 2.4108367e-02 -1.4279214e-01) (0.0000000e+00 0.0000000e+00 0.0000000e+00)) ((6.0446265e+02 -8.2841551e-01 5.5752586e-03) (-3.1598322e-03 -3.0325077e-03 -1.5372796e-03) (0.0000000e+00 0.0000000e+00 0.0000000e+00))
2361          	((-5.5631404e+00 -1.4999830e+04 2.4305925e-03) (1.9807860e-02 2.4117350e-02 -1.4276691e-01) (0.0000000e+00 0.0000000e+00 0.0000000e+00)) ((6.0443505e+02 -7.2340406e-01 5.7307625e-03) (-3.1575379e-03 -3.0273811e-03 -1.5358341e-03) (0.0000000e+00 0.0000000e+00 0.0000000e+00))
2362          	((-6.0586107e+00 -1.4999634e+04 2.4250547e-03) (1.9792620e-02 2.4126553e-02 -1.4273303e-01) (0.0000000e+00 0.0000000e+00 0.0000000e+00)) ((6.0441127e+02 -8.0024052e-01 5.6156587e-03) (-3.1545057e-03 -3.0217508e-03 -1.5337115e-03) (0.0000000e+00 0.0000000e+00 0.0000000e+00))
2363          	((-5.8995919e+00 -1.5000502e+04 2.4300776e-03) (1.9777336e-02 2.4128906e-02 -1.4270717e-01) (0.0000000e+00 0.0000000e+00 0.0000000e+00)) ((6.0449626e+02 -7.9206228e-01 5.6659543e-03) (-3.1525541e-03 -3.0157297e-03 -1.5320505e-03) (0.0000000e+00 0.0000000e+00 0.0000000e+00))
2364          	((-5.7034181e+00 -1.5000413e+04 2.4317380e-03) (1.9763816e-02 2.4135154e-02 -1.4268947e-01) (0.0000000e+00 0.0000000e+00 0.0000000e+00)) ((6.0449512e+02 -7.6796334e-01 5.7202700e-03) (-3.1508854e-03 -3.0098226e-03 -1.5308585e-03) (0.0000000e+00 0.0000000e+00 0.0000000e+00))
2365          	((-5.4129561e+00 -1.4999992e+04 2.4317734e-03) (1.9759896e-02 2.4149752e-02 -1.4267114e-01) (0.0000000e+00 0.0000000e+00 0.0000000e+00)) ((6.0447102e+02 -7.0306651e-01 5.7807239e-03) (-3.1484228e-03 -3.0042442e-03 -1.5304106e-03) (0.0000000e+00 0.0000000e+00 0.0000000e+00))
2366          	((-5.4981282e+00 -1.4999201e+04 2.4292678e-03) (1.9758022e-02 2.4171659e-02 -1.4263629e-01) (0.0000000e+00 0.0000000e+00 0.0000000e+00)) ((6.0437528e+02 -7.1571629e-01 5.7577128e-03) (-3.1439111e-03 -2.9991876e-03 -1.5300986e-03) (0.0000000e+00 0.0000000e+00 0.0000000e+00))
2367          	((-6.3264595e+00 -1.4999804e+04 2.4277076e-03) (1.9746599e-02 2.4191016e-02 -1.4259757e-01) (0.0000000e+00 0.0000000e+00 0.0000000e+00)) ((6.0442962e+02 -8.5936536e-01 5.5617475e-03) (-3.1397565e-03 -2.9935426e-03 -1.5293388e-03) (0.0000000e+00 0.0000000e+00 0.0000000e+00))
2368          	((-6.0700238e+00 -1.4999340e+04 2.4250233e-03) (1.9727402e-02 2.4199813e-02 -1.4254664e-01) (0.0000000e+00 0.0000000e+00 0.0000000e+00)) ((6.0436691e+02 -8.1732711e-01 5.6725240e-03) (-3.1341856e-03 -2.9884159e-03 -1.5282426e-03) (0.0000000e+00 0.0000000e+00 0.0000000e+00))
2369          	((-5.3429140e+00 -1.4999466e+04 2.4289529e-03) (1.9709632e-02 2.4201115e-02 -1.4249028e-01) (0.0000000e+00 0.0000000e+00 0.0000000e+00)) ((6.0438622e+02 -7.0734047e-01 5.8892509e-03) (-3.1280418e-03 -2.9841431e-03 -1.5280773e-03) (0.0000000e+00 0.0000000e+00 0.0000000e+00))
2370          	((-5.4779607e+00 -1.4999899e+04 2.4295882e-03) (1.9702531e-02 2.4198346e-02 -1.4242786e-01) (0.0000000e+00 0.0000000e+00 0.0000000e+00)) ((6.0442190e+02 -7.2172942e-01 5.7464444e-03) (-3.1226164e-03 -2.9799314e-03 -1.5281775e-03) (0.0000000e+00 0.0000000e+00 0.0000000e+00))
2371          	((-5.5739993e+00 -1.5000209e+04 2.4305510e-03) (1.9701951e-02 2.4195750e-02 -1.4236751e-01) (0.0000000e+00 0.0000000e+00 0.0000000e+00)) ((6.0446599e+02 -7.3310394e-01 5.7003132e-03) (-3.1183059e-03 -2.9767264e-03 -1.5288165e-03) (0.0000000e+00 0.0000000e+00 0.0000000e+00))
2372          	((-5.8364122e+00 -1.4999998e+04 2.4294110e-03) (1.9696795e-02 2.4194818e-02 -1.4230375e-01) (0.0000000e+00 0.0000000e+00 0.0000000e+00)) ((6.0444599e+02 -7.8119875e-01 5.6587654e-03) (-3.1141452e-03 -2.9743273e-03 -1.5293182e-03) (0.0000000e+00 0.0000000e+00 0.0000000e+00))
2373          	((-6.3671810e+00 -1.4999834e+04 2.4239631e-03) (1.9688178e-02 2.4202344e-02 -1.4223766e-01) (0.0000000e+00 0.0000000e+00 0.0000000e+00)) ((6.0442155e+02 -8.4491853e-01 5.5469542e-03) (-3.1097567e-03 -2.9725003e-03 -1.5295221e-03) (0.0000000e+00 0.0000000e+00 0.0000000e+00))
2374          	((-5.9166592e+00 -1.4999857e+04 2.4277645e-03) (1.9678587e-02 2.4212663e-02 -1.4217256e-01) (0.0000000e+00 0.0000000e+00 0.0000000e+00)) ((6.0441793e+02 -7.8057392e-01 5.6685200e-03) (-3.1053833e-03 -2.9718525e-03 -1.5301683e-03) (0.0000000e+00 0.0000000e+00 0.0000000e+00))
2375          	((-5.5457345e+00 -1.5000145e+04 2.4302194e-03) (1.9672532e-02 2.4216617e-02 -1.4211268e-01) (0.0000000e+00 0.0000000e+00 0.0000000e+00)) ((6.0444326e+02 -7.1887650e-01 5.7539661e-03) (-3.1017900e-03 -2.9727041e-03 -1.5305808e-03) (0.0000000e+00 0.0000000e+00 0.0000000e+00))
2376          	((-5.3953004e+00 -1.5000107e+04 2.4300089e-03) (1.9678463e-02 2.4217779e-02 -1.4205037e-01) (0.0000000e+00 0.0000000e+00 0.0000000e+00)) ((6.0444922e+02 -6.8909659e-01 5.7914537e-03) (-3.0984440e-03 -2.9743594e-03 -1.5315846e-03) (0.0000000e+00 0.0000000e+00 0.0000000e+00))
2377          	((-5.8563197e+00 -1.5000208e+04 2.4285978e-03) (1.9692804e-02 2.4215899e-02 -1.4198631e-01) (0.0000000e+00 0.0000000e+00 0.0000000e+00)) ((6.0446250e+02 -7.7003791e-01 5.6695866e-03) (-3.0952447e-03 -2.9764972e-03 -1.5330499e-03) (0.0000000e+00 0.0000000e+00 0.0000000e+00))
2378          	((-5.6322155e+00 -1.4999898e+04 2.4288255e-03) (1.9707972e-02 2.4215256e-02 -1.4192033e-01) (0.0000000e+00 0.0000000e+00 0.0000000e+00)) ((6.0444007e+02 -7.4212566e-01 5.7901043e-03) (-3.0911243e-03 -2.9792985e-03 -1.5353323e-03) (0.0000000e+00 0.0000000e+00 0.0000000e+00))
2379          	((-6.0497722e+00 -1.4999760e+04 2.4280531e-03) (1.9724689e-02 2.4224728e-02 -1.4185850e-01) (0.0000000e+00 0.0000000e+00 0.0000000e+00)) ((6.0442676e+02 -8.1819949e-01 5.6636195e-03) (-3.0868131e-03 -2.9827205e-03 -1.5378274e-03) (0.0000000e+00 0.0000000e+00 0.0000000e+00))
2380          	((-6.1220968e+00 -1.5000397e+04 2.4295794e-03) (1.9744166e-02 2.4232121e-02 -1.4180889e-01) (0.0000000e+00 0.0000000e+00 0.0000000e+00)) ((6.0448517e+02 -8.3526782e-01 5.5930391e-03) (-3.0840021e-03 -2.9870322e-03 -1.5403165e-03) (0.0000000e+00 0.0000000e+00 0.0000000e+00))
2381          	((-5.9736515e+00 -1.5000156e+04 2.4293079e-03) (1.9773270e-02 2.4235813e-02 -1.4176724e-01) (0.0000000e+00 0.0000000e+00 0.0000000e+00)) ((6.0446792e+02 -8.0305302e-01 5.5742757e-03) (-3.0816702e-03 -2.9933898e-03 -1.5427013e-03) (0.0000000e+00 0.0000000e+00 0.0000000e+00))
2382          	((-5.5958773e+00 -1.4999821e+04 2.4290591e-03) (1.9802905e-02 2.4240912e-02 -1.4172308e-01) (0.0000000e+00 0.0000000e+00 0.0000000e+00)) ((6.0443230e+02 -7.3191108e-01 5.7034533e-03) (-3.0790771e-03 -3.0013490e-03 -1.5456505e-03) (0.0000000e+00 0.0000000e+00 0.0000000e+00))
2383          	((-5.9654906e+00 -1.4999393e+04 2.4235796e-03) (1.9833369e-02 2.4246208e-02 -1.4167146e-01) (0.0000000e+00 0.0000000e+00 0.0000000e+00)) ((6.0438486e+02 -7.7495013e-01 5.6486826e-03) (-3.0757456e-03 -3.0100144e-03 -1.5488454e-03) (0.0000000e+00 0.0000000e+00 0.0000000e+00))
2384          	((-6.0462444e+00 -1.4999916e+04 2.4279565e-03) (1.9859901e-02 2.4252314e-02 -1.4163126e-01) (0.0000000e+00 0.0000000e+00 0.0000000e+00)) ((6.0443358e+02 -8.1049722e-01 5.6100123e-03) (-3.0735251e-03 -3.0197968e-03 -1.5520321e-03) (0.0000000e+00 0.0000000e+00 0.0000000e+00))
2385          	((-5.9128735e+00 -1.5000657e+04 2.4311804e-03) (1.9895017e-02 2.4250792e-02 -1.4161247e-01) (0.0000000e+00 0.0000000e+00 0.0000000e+00)) ((6.0449392e+02 -8.0067082e-01 5.6321910e-03) (-3.0736142e-03 -3.0308245e-03 -1.5556746e-03) (0.0000000e+00 0.0000000e+00 0.0000000e+00))
2386          	((-6.0028214e+00 -1.5000644e+04 2.4304174e-03) (1.9938230e-02 2.4242176e-02 -1.4160664e-01) (0.0000000e+00 0.0000000e+00 0.0000000e+00)) ((6.0450550e+02 -8.1469726e-01 5.5914275e-03) (-3.0749371e-03 -3.0432163e-03 -1.5598325e-03) (0.0000000e+00 0.0000000e+00 0.0000000e+00))
2387          	((-5.5733211e+00 -1.4999899e+04 2.4286940e-03) (1.9990314e-02 2.4243264e-02 -1.4160612e-01) (0.0000000e+00 0.0000000e+00 0.0000000e+00)) ((6.0444808e+02 -7.2818531e-01 5.7272857e-03) (-3.0749611e-03 -3.0563250e-03 -1.5642576e-03) (0.0000000e+00 0.0000000e+00 0.0000000e+00))
2388          	((-5.6813925e+00 -1.4999072e+04 2.4273332e-03) (2.0047422e-02 2.4249535e-02 -1.4159477e-01) (0.0000000e+00 0.0000000e+00 0.0000000e+00)) ((6.0437614e+02 -7.5041262e-01 5.6646923e-03) (-3.0732915e-03 -3.0703061e-03 -1.5690865e-03) (0.0000000e+00 0.0000000e+00 0.0000000e+00))
2389          	((-5.7568547e+00 -1.4999291e+04 2.4288082e-03) (2.0103331e-02 2.4258106e-02 -1.4158183e-01) (0.0000000e+00 0.0000000e+00 0.0000000e+00)) ((6.0439309e+02 -7.7255951e-01 5.6282406e-03) (-3.0716388e-03 -3.0845382e-03 -1.5738015e-03) (0.0000000e+00 0.0000000e+00 0.0000000e+00))
2390          	((-5.6172169e+00 -1.4999878e+04 2.4299952e-03) (2.0154328e-02 2.4260023e-02 -1.4157650e-01) (0.0000000e+00 0.0000000e+00 0.0000000e+00)) ((6.0442346e+02 -7.4864151e-01 5.6751792e-03) (-3.0710500e-03 -3.0992296e-03 -1.5785227e-03) (0.0000000e+00 0.0000000e+00 0.0000000e+00))
2391          	((-5.7537713e+00 -1.5000404e+04 2.4306174e-03) (2.0208564e-02 2.4254107e-02 -1.4158665e-01) (0.0000000e+00 0.0000000e+00 0.0000000e+00)) ((6.0448088e+02 -7.6567221e-01 5.6393340e-03) (-3.0723225e-03 -3.1149941e-03 -1.5832189e-03) (0.0000000e+00 0.0000000e+00 0.0000000e+00))
2392          	((-5.7512226e+00 -1.5000196e+04 2.4305018e-03) (2.0274206e-02 2.4247617e-02 -1.4159965e-01) (0.0000000e+00 0.0000000e+00 0.0000000e+00)) ((6.0446934e+02 -7.7148133e-01 5.5686474e-03) (-3.0733511e-03 -3.1316827e-03 -1.5879090e-03) (0.0000000e+00 0.0000000e+00 0.0000000e+00))
2393          	((-6.5581098e+00 -1.4999812e+04 2.4224849e-03) (2.0331483e-02 2.4245285e-02 -1.4160190e-01) (0.0000000e+00 0.0000000e+00 0.0000000e+00)) ((6.0444422e+02 -8.7966226e-01 5.3833956e-03) (-3.0734490e-03 -3.1480609e-03 -1.5913924e-03) (0.0000000e+00 0.0000000e+00 0.0000000e+00))
2394          	((-6.2186751e+00 -1.4999194e+04 2.4244205e-03) (2.0387238e-02 2.4241046e-02 -1.4159774e-01) (0.0000000e+00 0.0000000e+00 0.0000000e+00)) ((6.0438149e+02 -8.3371966e-01 5.4626955e-03) (-3.0730498e-03 -3.1652343e-03 -1.5952786e-03) (0.0000000e+00 0.0000000e+00 0.0000000e+00))
2395          	((-5.6314542e+00 -1.4999481e+04 2.4299034e-03) (2.0446164e-02 2.4236813e-02 -1.4159268e-01) (0.0000000e+00 0.0000000e+00 0.0000000e+00)) ((6.0441056e+02 -7.5632730e-01 5.6469487e-03) (-3.0731745e-03 -3.1831738e-03 -1.6002864e-03) (0.0000000e+00 0.0000000e+00 0.0000000e+00))
2396          	((-5.9916878e+00 -1.5000241e+04 2.4302322e-03) (2.0507771e-02 2.4221978e-02 -1.4159493e-01) (0.0000000e+00 0.0000000e+00 0.0000000e+00)) ((6.0447182e+02 -8.1481061e-01 5.5556596e-03) (-3.0752144e-03 -3.2010633e-03 -1.6049411e-03) (0.0000000e+00 0.0000000e+00 0.0000000e+00))
2397          	((-5.9007915e+00 -1.5000493e+04 2.4312166e-03) (2.0572864e-02 2.4203172e-02 -1.4159519e-01) (0.0000000e+00 0.0000000e+00 0.0000000e+00)) ((6.0449911e+02 -7.9942117e-01 5.5745337e-03) (-3.0782209e-03 -3.2194812e-03 -1.6100803e-03) (0.0000000e+00 0.0000000e+00 0.0000000e+00))
2398          	((-5.6077505e+00 -1.5000308e+04 2.4318561e-03) (2.0641222e-02 2.4189284e-02 -1.4158441e-01) (0.0000000e+00 0.0000000e+00 0.0000000e+00)) ((6.0449873e+02 -7.5406641e-01 5.6591820e-03) (-3.0807969e-03 -3.2379440e-03 -1.6153729e-03) (0.0000000e+00 0.0000000e+00 0.0000000e+00))
2399          	((-5.9810292e+00 -1.5000414e+04 2.4311561e-03) (2.0700657e-02 2.4182965e-02 -1.4157252e-01) (0.0000000e+00 0.0000000e+00 0.0000000e+00)) ((6.0451061e+02 -8.1500628e-01 5.5765036e-03) (-3.0832074e-03 -3.2554869e-03 -1.6198979e-03) (0.0000000e+00 0.0000000e+00 0.0000000e+00))
2400          	((-6.0526448e+00 -1.5000318e+04 2.4312567e-03) (2.0749098e-02 2.4175817e-02 -1.4155832e-01) (0.0000000e+00 0.0000000e+00 0.0000000e+00)) ((6.0449999e+02 -8.3517369e-01 5.5595259e-03) (-3.0854255e-03 -3.2723119e-03 -1.6242991e-03) (0.0000000e+00 0.0000000e+00 0.0000000e+00))
2401          	((-6.2675153e+00 -1.4999924e+04 2.4306657e-03) (2.0793487e-02 2.4165087e-02 -1.4154152e-01) (0.0000000e+00 0.0000000e+00 0.0000000e+00)) ((6.0447113e+02 -8.6784263e-01 5.5146000e-03) (-3.0871963e-03 -3.2879933e-03 -1.6287213e-03) (0.0000000e+00 0.0000000e+00 0.0000000e+00))
2402          	((-5.5804966e+00 -1.4999803e+04 2.4307665e-03) (2.0840061e-02 2.4141814e-02 -1.4151347e-01) (0.0000000e+00 0.0000000e+00 0.0000000e+00)) ((6.0444307e+02 -7.5925616e-01 5.7808860e-03) (-3.0867925e-03 -3.3032584e-03 -1.6339021e-03) (0.0000000e+00 0.0000000e+00 0.0000000e+00))
2403          	((-5.7635806e+00 -1.4998716e+04 2.4239827e-03) (2.0881724e-02 2.4114399e-02 -1.4146317e-01) (0.0000000e+00 0.0000000e+00 0.0000000e+00)) ((6.0432936e+02 -7.7611419e-01 5.6984872e-03) (-3.0836952e-03 -3.3182440e-03 -1.6386553e-03) (0.0000000e+00 0.0000000e+00 0.0000000e+00))
2404          	((-5.4040135e+00 -1.4999603e+04 2.4298336e-03) (2.0922542e-02 2.4094456e-02 -1.4141023e-01) (0.0000000e+00 0.0000000e+00 0.0000000e+00)) ((6.0441954e+02 -7.1788327e-01 5.7299672e-03) (-3.0820306e-03 -3.3320986e-03 -1.6427083e-03) (0.0000000e+00 0.0000000e+00 0.0000000e+00))
2405          	((-5.4307343e+00 -1.5000141e+04 2.4323725e-03) (2.0958818e-02 2.4074630e-02 -1.4135923e-01) (0.0000000e+00 0.0000000e+00 0.0000000e+00)) ((6.0446892e+02 -7.2088841e-01 5.7024398e-03) (-3.0822709e-03 -3.3442761e-03 -1.6454904e-03) (0.0000000e+00 0.0000000e+00 0.0000000e+00))
2406          	((-5.8218178e+00 -1.5000315e+04 2.4321443e-03) (2.0984861e-02 2.4054171e-02 -1.4131617e-01) (0.0000000e+00 0.0000000e+00 0.0000000e+00)) ((6.0449497e+02 -7.9900775e-01 5.6106064e-03) (-3.0835271e-03 -3.3544275e-03 -1.6470258e-03) (0.0000000e+00 0.0000000e+00 0.0000000e+00))
2407          	((-5.8477472e+00 -1.5000497e+04 2.4322738e-03) (2.1010121e-02 2.4029109e-02 -1.4127995e-01) (0.0000000e+00 0.0000000e+00 0.0000000e+00)) ((6.0452622e+02 -8.0217249e-01 5.6026082e-03) (-3.0854805e-03 -3.3639636e-03 -1.6491094e-03) (0.0000000e+00 0.0000000e+00 0.0000000e+00))
2408          	((-5.9718589e+00 -1.4999960e+04 2.4291676e-03) (2.1027007e-02 2.4007767e-02 -1.4123581e-01) (0.0000000e+00 0.0000000e+00 0.0000000e+00)) ((6.0448858e+02 -8.0801826e-01 5.5450897e-03) (-3.0858352e-03 -3.3726010e-03 -1.6507439e-03) (0.0000000e+00 0.0000000e+00 0.0000000e+00))