# Forces      
# CofR        : (0.0000000e+00 0.0000000e+00 0.0000000e+00)
# Time        forces(pressure viscous porous) moment(pressure viscous porous)
1             	((4.0084889e+00 -1.4988829e+04 -4.6193033e-04) (1.9429375e-05 3.5847452e-06 -4.3787551e-02) (0.0000000e+00 0.0000000e+00 0.0000000e+00)) ((6.0838376e+02 1.4095357e+00 -8.6863002e-04) (-2.4879568e-03 -9.3478926e-07 -1.2254820e-06) (0.0000000e+00 0.0000000e+00 0.0000000e+00))
2             	((5.0527124e+00 -1.4986246e+04 -1.3022861e-04) (2.3369987e-06 1.2400843e-05 -4.2604129e-02) (0.0000000e+00 0.0000000e+00 0.0000000e+00)) ((6.0347587e+02 1.6662117e+00 -8.9708304e-04) (-2.4161991e-03 -2.0154968e-06 -1.5303148e-06) (0.0000000e+00 0.0000000e+00 0.0000000e+00))
3             	((4.3366794e+00 -1.4983836e+04 5.5775123e-04) (1.1498537e-06 2.8118833e-06 -4.2444342e-02) (0.0000000e+00 0.0000000e+00 0.0000000e+00)) ((5.9797788e+02 1.6910334e+00 -8.8803534e-04) (-2.4063657e-03 -1.2282561e-06 -1.4422901e-06) (0.0000000e+00 0.0000000e+00 0.0000000e+00))
4             	((3.6564927e+00 -1.4984548e+04 7.3730510e-04) (3.6955361e-06 -1.5428084e-06 -4.2703112e-02) (0.0000000e+00 0.0000000e+00 0.0000000e+00)) ((5.9764147e+02 1.6176672e+00 -8.6655466e-04) (-2.4221348e-03 -9.2725921e-08 -1.4336455e-06) (0.0000000e+00 0.0000000e+00 0.0000000e+00))
5             	((3.5397033e+00 -1.4985731e+04 6.3119361e-04) (4.0930497e-06 -2.6571071e-06 -4.2795876e-02) (0.0000000e+00 0.0000000e+00 0.0000000e+00)) ((5.9920363e+02 1.5757051e+00 -8.6050494e-04) (-2.4278023e-03 3.5192524e-07 -1.5142606e-06) (0.0000000e+00 0.0000000e+00 0.0000000e+00))
6             	((3.7846745e+00 -1.4986209e+04 5.5571101e-04) (3.0168304e-06 -3.2814865e-06 -4.2700179e-02) (0.0000000e+00 0.0000000e+00 0.0000000e+00)) ((5.9981884e+02 1.5950538e+00 -8.7062204e-04) (-2.4219841e-03 6.1540255e-07 -1.6668797e-06) (0.0000000e+00 0.0000000e+00 0.0000000e+00))
7             	((3.9381160e+00 -1.4986227e+04 5.6597495e-04) (2.6540465e-06 -4.5665506e-06 -4.2584112e-02) (0.0000000e+00 0.0000000e+00 0.0000000e+00)) ((5.9955817e+02 1.6147359e+00 -8.8242137e-04) (-2.4149359e-03 1.1122198e-06 -1.8569132e-06) (0.0000000e+00 0.0000000e+00 0.0000000e+00))
8             	((3.9020213e+00 -1.4986051e+04 6.0092857e-04) (4.6871355e-06 -7.4330834e-06 -4.2616958e-02) (0.0000000e+00 0.0000000e+00 0.0000000e+00)) ((5.9934316e+02 1.6129917e+00 -8.8758181e-04) (-2.4170230e-03 1.4215559e-06 -2.1746185e-06) (0.0000000e+00 0.0000000e+00 0.0000000e+00))
9             	((3.8409523e+00 -1.4986007e+04 6.1102653e-04) (2.4889833e-06 -1.2120338e-05 -4.4315425e-02) (0.0000000e+00 0.0000000e+00 0.0000000e+00)) ((5.9936376e+02 1.6051275e+00 -8.8392357e-04) (-2.5144729e-03 8.0426997e-07 -2.3244268e-06) (0.0000000e+00 0.0000000e+00 0.0000000e+00))
10            	((3.8033974e+00 -1.4986018e+04 6.0296459e-04) (-2.3920491e-06 -1.9596389e-05 -4.6511260e-02) (0.0000000e+00 0.0000000e+00 0.0000000e+00)) ((5.9944110e+02 1.6018888e+00 -8.7600134e-04) (-2.6396679e-03 -2.2405410e-07 -2.3781685e-06) (0.0000000e+00 0.0000000e+00 0.0000000e+00))
11            	((3.8293397e+00 -1.4986145e+04 5.9700797e-04) (-6.4463917e-06 -2.8834300e-05 -4.8949796e-02) (0.0000000e+00 0.0000000e+00 0.0000000e+00)) ((5.9947019e+02 1.6037894e+00 -8.6932526e-04) (-2.7785298e-03 -1.3118129e-06 -2.4954014e-06) (0.0000000e+00 0.0000000e+00 0.0000000e+00))
12            	((3.8406653e+00 -1.4986201e+04 5.9570181e-04) (-8.5472284e-06 -3.9673662e-05 -5.1655432e-02) (0.0000000e+00 0.0000000e+00 0.0000000e+00)) ((5.9946921e+02 1.6042947e+00 -8.6726916e-04) (-2.9324615e-03 -2.3447271e-06 -2.8773553e-06) (0.0000000e+00 0.0000000e+00 0.0000000e+00))
13            	((3.8642345e+00 -1.4986248e+04 5.9351069e-04) (-1.1035191e-05 -5.0948472e-05 -5.4663973e-02) (0.0000000e+00 0.0000000e+00 0.0000000e+00)) ((5.9946588e+02 1.6041401e+00 -8.6874053e-04) (-3.1033611e-03 -3.3257891e-06 -3.2074766e-06) (0.0000000e+00 0.0000000e+00 0.0000000e+00))
14            	((3.8692286e+00 -1.4986258e+04 5.9060702e-04) (-1.2764371e-05 -6.1789418e-05 -5.8006793e-02) (0.0000000e+00 0.0000000e+00 0.0000000e+00)) ((5.9946751e+02 1.6036228e+00 -8.7129904e-04) (-3.2929734e-03 -4.2658933e-06 -3.5385702e-06) (0.0000000e+00 0.0000000e+00 0.0000000e+00))
15            	((3.8628342e+00 -1.4986253e+04 5.8674218e-04) (-1.5457474e-05 -7.2607878e-05 -6.1523536e-02) (0.0000000e+00 0.0000000e+00 0.0000000e+00)) ((5.9947707e+02 1.6028885e+00 -8.7427245e-04) (-3.4924168e-03 -5.2066290e-06 -3.7476406e-06) (0.0000000e+00 0.0000000e+00 0.0000000e+00))
16            	((3.8506805e+00 -1.4986253e+04 5.8202442e-04) (-1.8563019e-05 -8.4399799e-05 -6.5143666e-02) (0.0000000e+00 0.0000000e+00 0.0000000e+00)) ((5.9948935e+02 1.6026162e+00 -8.7947772e-04) (-3.6976626e-03 -6.1522331e-06 -3.8253850e-06) (0.0000000e+00 0.0000000e+00 0.0000000e+00))
17            	((3.8456168e+00 -1.4986276e+04 5.7646902e-04) (-2.2701105e-05 -9.6856628e-05 -6.8854650e-02) (0.0000000e+00 0.0000000e+00 0.0000000e+00)) ((5.9949505e+02 1.6027515e+00 -8.8484921e-04) (-3.9079949e-03 -7.1408385e-06 -3.6849758e-06) (0.0000000e+00 0.0000000e+00 0.0000000e+00))
18            	((3.8550578e+00 -1.4986306e+04 5.7113332e-04) (-2.9633200e-05 -1.1100053e-04 -7.2645732e-02) (0.0000000e+00 0.0000000e+00 0.0000000e+00)) ((5.9949808e+02 1.6030336e+00 -8.8998916e-04) (-4.1228607e-03 -7.9699473e-06 -3.2011986e-06) (0.0000000e+00 0.0000000e+00 0.0000000e+00))
19            	((3.8687963e+00 -1.4986329e+04 5.6720835e-04) (-3.8664616e-05 -1.2542131e-04 -7.6506529e-02) (0.0000000e+00 0.0000000e+00 0.0000000e+00)) ((5.9949848e+02 1.6033466e+00 -8.9365816e-04) (-4.3415559e-03 -8.6493785e-06 -2.4948291e-06) (0.0000000e+00 0.0000000e+00 0.0000000e+00))
20            	((3.8844628e+00 -1.4986340e+04 5.6380532e-04) (-4.7555846e-05 -1.3895168e-04 -8.0422939e-02) (0.0000000e+00 0.0000000e+00 0.0000000e+00)) ((5.9949639e+02 1.6029993e+00 -8.9400683e-04) (-4.5634074e-03 -8.9879391e-06 -1.6918802e-06) (0.0000000e+00 0.0000000e+00 0.0000000e+00))
21            	((3.8890932e+00 -1.4986350e+04 5.6119766e-04) (-5.5689530e-05 -1.5197726e-04 -8.4384380e-02) (0.0000000e+00 0.0000000e+00 0.0000000e+00)) ((5.9949185e+02 1.6030734e+00 -8.9320148e-04) (-4.7877646e-03 -9.2320661e-06 -8.9183031e-07) (0.0000000e+00 0.0000000e+00 0.0000000e+00))
22            	((3.8880282e+00 -1.4986366e+04 5.5917528e-04) (-6.2472655e-05 -1.6408190e-04 -8.8374165e-02) (0.0000000e+00 0.0000000e+00 0.0000000e+00)) ((5.9948630e+02 1.6031369e+00 -8.9231974e-04) (-5.0137397e-03 -9.2071763e-06 -2.1767280e-07) (0.0000000e+00 0.0000000e+00 0.0000000e+00))
23            	((3.8835062e+00 -1.4986387e+04 5.5762769e-04) (-6.7827389e-05 -1.7500986e-04 -9.2376768e-02) (0.0000000e+00 0.0000000e+00 0.0000000e+00)) ((5.9948139e+02 1.6029698e+00 -8.9074210e-04) (-5.2403613e-03 -8.9974965e-06 2.7325434e-07) (0.0000000e+00 0.0000000e+00 0.0000000e+00))
24            	((3.8844978e+00 -1.4986410e+04 5.5643874e-04) (-7.2548137e-05 -1.8534306e-04 -9.6377991e-02) (0.0000000e+00 0.0000000e+00 0.0000000e+00)) ((5.9947608e+02 1.6028137e+00 -8.8952572e-04) (-5.4668221e-03 -8.7452286e-06 6.6004722e-07) (0.0000000e+00 0.0000000e+00 0.0000000e+00))
25            	((3.8866349e+00 -1.4986422e+04 5.5553584e-04) (-7.5211263e-05 -1.9537345e-04 -1.0036638e-01) (0.0000000e+00 0.0000000e+00 0.0000000e+00)) ((5.9946897e+02 1.6026798e+00 -8.9023583e-04) (-5.6923842e-03 -8.6148286e-06 7.3757125e-07) (0.0000000e+00 0.0000000e+00 0.0000000e+00))
26            	((3.8871517e+00 -1.4986429e+04 5.5472642e-04) (-7.7663416e-05 -2.0271457e-04 -1.0433238e-01) (0.0000000e+00 0.0000000e+00 0.0000000e+00)) ((5.9946103e+02 1.6028768e+00 -8.9254294e-04) (-5.9166298e-03 -8.4546598e-06 6.7166384e-07) (0.0000000e+00 0.0000000e+00 0.0000000e+00))
27            	((3.8881173e+00 -1.4986434e+04 5.5405968e-04) (-8.0316814e-05 -2.0845190e-04 -1.0826434e-01) (0.0000000e+00 0.0000000e+00 0.0000000e+00)) ((5.9945375e+02 1.6029728e+00 -8.9555829e-04) (-6.1389064e-03 -8.3455022e-06 6.4061810e-07) (0.0000000e+00 0.0000000e+00 0.0000000e+00))
28            	((3.8939167e+00 -1.4986438e+04 5.5336404e-04) (-8.4520971e-05 -2.1207847e-04 -1.1215194e-01) (0.0000000e+00 0.0000000e+00 0.0000000e+00)) ((5.9944545e+02 1.6029286e+00 -8.9880823e-04) (-6.3586454e-03 -8.2315142e-06 7.1626876e-07) (0.0000000e+00 0.0000000e+00 0.0000000e+00))
29            	((3.9030754e+00 -1.4986440e+04 5.5303327e-04) (-9.0082566e-05 -2.1455739e-04 -1.1598412e-01) (0.0000000e+00 0.0000000e+00 0.0000000e+00)) ((5.9943588e+02 1.6033580e+00 -9.0193606e-04) (-6.5751686e-03 -7.8423442e-06 8.5185786e-07) (0.0000000e+00 0.0000000e+00 0.0000000e+00))
30            	((3.9143099e+00 -1.4986440e+04 5.5279903e-04) (-9.6461572e-05 -2.1514977e-04 -1.1975473e-01) (0.0000000e+00 0.0000000e+00 0.0000000e+00)) ((5.9942615e+02 1.6040019e+00 -9.0389514e-04) (-6.7882292e-03 -7.2693281e-06 1.0813366e-06) (0.0000000e+00 0.0000000e+00 0.0000000e+00))
31            	((3.9233075e+00 -1.4986442e+04 5.5277361e-04) (-1.0500027e-04 -2.1603136e-04 -1.2345207e-01) (0.0000000e+00 0.0000000e+00 0.0000000e+00)) ((5.9941686e+02 1.6046782e+00 -9.0297577e-04) (-6.9970794e-03 -6.3732822e-06 1.3921045e-06) (0.0000000e+00 0.0000000e+00 0.0000000e+00))
32            	((3.9271825e+00 -1.4986442e+04 5.5275844e-04) (-1.1286914e-04 -2.1780495e-04 -1.2706829e-01) (0.0000000e+00 0.0000000e+00 0.0000000e+00)) ((5.9940777e+02 1.6051487e+00 -9.0005619e-04) (-7.2012745e-03 -4.9445267e-06 1.5779674e-06) (0.0000000e+00 0.0000000e+00 0.0000000e+00))
33            	((3.9288091e+00 -1.4986440e+04 5.5257616e-04) (-1.2313640e-04 -2.2031527e-04 -1.3059345e-01) (0.0000000e+00 0.0000000e+00 0.0000000e+00)) ((5.9940034e+02 1.6054082e+00 -8.9738053e-04) (-7.4003104e-03 -3.2190579e-06 1.9395144e-06) (0.0000000e+00 0.0000000e+00 0.0000000e+00))
34            	((3.9324033e+00 -1.4986437e+04 5.5319236e-04) (-1.3540823e-04 -2.2370723e-04 -1.3402074e-01) (0.0000000e+00 0.0000000e+00 0.0000000e+00)) ((5.9939359e+02 1.6056604e+00 -8.9613497e-04) (-7.5938785e-03 -1.2370765e-06 2.7057579e-06) (0.0000000e+00 0.0000000e+00 0.0000000e+00))
35            	((3.9375431e+00 -1.4986437e+04 5.5354071e-04) (-1.4757911e-04 -2.2299072e-04 -1.3734262e-01) (0.0000000e+00 0.0000000e+00 0.0000000e+00)) ((5.9938713e+02 1.6060714e+00 -8.9477055e-04) (-7.7815643e-03 1.0270629e-06 3.2626295e-06) (0.0000000e+00 0.0000000e+00 0.0000000e+00))
36            	((3.9427778e+00 -1.4986438e+04 5.5408337e-04) (-1.5929228e-04 -2.2278865e-04 -1.4054795e-01) (0.0000000e+00 0.0000000e+00 0.0000000e+00)) ((5.9938136e+02 1.6063766e+00 -8.9429725e-04) (-7.9625549e-03 3.6356722e-06 3.7558253e-06) (0.0000000e+00 0.0000000e+00 0.0000000e+00))
37            	((3.9469363e+00 -1.4986439e+04 5.5452546e-04) (-1.6922490e-04 -2.2199018e-04 -1.4363496e-01) (0.0000000e+00 0.0000000e+00 0.0000000e+00)) ((5.9937641e+02 1.6064375e+00 -8.9523104e-04) (-8.1369030e-03 6.8326402e-06 4.1659666e-06) (0.0000000e+00 0.0000000e+00 0.0000000e+00))
38            	((3.9500538e+00 -1.4986439e+04 5.5503998e-04) (-1.7985807e-04 -2.2013678e-04 -1.4659826e-01) (0.0000000e+00 0.0000000e+00 0.0000000e+00)) ((5.9937212e+02 1.6064832e+00 -8.9688817e-04) (-8.3042477e-03 1.0431335e-05 4.5459325e-06) (0.0000000e+00 0.0000000e+00 0.0000000e+00))
39            	((3.9535484e+00 -1.4986437e+04 5.5562223e-04) (-1.8960432e-04 -2.1890689e-04 -1.4943964e-01) (0.0000000e+00 0.0000000e+00 0.0000000e+00)) ((5.9936890e+02 1.6066897e+00 -8.9838322e-04) (-8.4646420e-03 1.4259268e-05 4.9533936e-06) (0.0000000e+00 0.0000000e+00 0.0000000e+00))
40            	((3.9585920e+00 -1.4986436e+04 5.5642845e-04) (-1.9821736e-04 -2.1487006e-04 -1.5215411e-01) (0.0000000e+00 0.0000000e+00 0.0000000e+00)) ((5.9936682e+02 1.6069688e+00 -8.9925078e-04) (-8.6179080e-03 1.8433259e-05 5.3346922e-06) (0.0000000e+00 0.0000000e+00 0.0000000e+00))
41            	((3.9641627e+00 -1.4986436e+04 5.5693448e-04) (-2.0443361e-04 -2.1154794e-04 -1.5473849e-01) (0.0000000e+00 0.0000000e+00 0.0000000e+00)) ((5.9936508e+02 1.6071037e+00 -8.9935433e-04) (-8.7637410e-03 2.2900083e-05 5.4400653e-06) (0.0000000e+00 0.0000000e+00 0.0000000e+00))
42            	((3.9704614e+00 -1.4986438e+04 5.5734317e-04) (-2.1239546e-04 -2.0588805e-04 -1.5719473e-01) (0.0000000e+00 0.0000000e+00 0.0000000e+00)) ((5.9936372e+02 1.6071332e+00 -8.9929984e-04) (-8.9023389e-03 2.7475512e-05 5.5871777e-06) (0.0000000e+00 0.0000000e+00 0.0000000e+00))
43            	((3.9759885e+00 -1.4986438e+04 5.5781128e-04) (-2.2094501e-04 -2.0197552e-04 -1.5952688e-01) (0.0000000e+00 0.0000000e+00 0.0000000e+00)) ((5.9936262e+02 1.6071496e+00 -8.9917567e-04) (-9.0339968e-03 3.2186468e-05 5.9478128e-06) (0.0000000e+00 0.0000000e+00 0.0000000e+00))
44            	((3.9795009e+00 -1.4986437e+04 5.5821808e-04) (-2.3152394e-04 -1.9556124e-04 -1.6173333e-01) (0.0000000e+00 0.0000000e+00 0.0000000e+00)) ((5.9936195e+02 1.6072874e+00 -8.9854666e-04) (-9.1586056e-03 3.6997662e-05 6.3208300e-06) (0.0000000e+00 0.0000000e+00 0.0000000e+00))
45            	((3.9824109e+00 -1.4986435e+04 5.5858401e-04) (-2.3782441e-04 -1.8834498e-04 -1.6381578e-01) (0.0000000e+00 0.0000000e+00 0.0000000e+00)) ((5.9936157e+02 1.6075048e+00 -8.9760205e-04) (-9.2762256e-03 4.2185739e-05 6.4413349e-06) (0.0000000e+00 0.0000000e+00 0.0000000e+00))
46            	((3.9852188e+00 -1.4986437e+04 5.5896527e-04) (-2.4276812e-04 -1.7900557e-04 -1.6577670e-01) (0.0000000e+00 0.0000000e+00 0.0000000e+00)) ((5.9936143e+02 1.6076446e+00 -8.9694269e-04) (-9.3870565e-03 4.7446511e-05 6.4477743e-06) (0.0000000e+00 0.0000000e+00 0.0000000e+00))
47            	((3.9886997e+00 -1.4986440e+04 5.5932564e-04) (-2.4970970e-04 -1.7142019e-04 -1.6762658e-01) (0.0000000e+00 0.0000000e+00 0.0000000e+00)) ((5.9936148e+02 1.6076903e+00 -8.9648613e-04) (-9.4916967e-03 5.2843989e-05 6.6250600e-06) (0.0000000e+00 0.0000000e+00 0.0000000e+00))
48            	((3.9943162e+00 -1.4986441e+04 5.5966818e-04) (-2.5881464e-04 -1.6131918e-04 -1.6936255e-01) (0.0000000e+00 0.0000000e+00 0.0000000e+00)) ((5.9936162e+02 1.6077273e+00 -8.9621745e-04) (-9.5899324e-03 5.8313582e-05 6.9382416e-06) (0.0000000e+00 0.0000000e+00 0.0000000e+00))
49            	((4.0002999e+00 -1.4986441e+04 5.5994015e-04) (-2.6744488e-04 -1.5093344e-04 -1.7098555e-01) (0.0000000e+00 0.0000000e+00 0.0000000e+00)) ((5.9936196e+02 1.6078102e+00 -8.9552343e-04) (-9.6818254e-03 6.3954706e-05 7.3650783e-06) (0.0000000e+00 0.0000000e+00 0.0000000e+00))
50            	((4.0047330e+00 -1.4986443e+04 5.6010524e-04) (-2.7629686e-04 -1.4068940e-04 -1.7250342e-01) (0.0000000e+00 0.0000000e+00 0.0000000e+00)) ((5.9936227e+02 1.6079311e+00 -8.9482137e-04) (-9.7678336e-03 6.9677642e-05 7.8451495e-06) (0.0000000e+00 0.0000000e+00 0.0000000e+00))
51            	((4.0089577e+00 -1.4986446e+04 5.6018227e-04) (-2.8658393e-04 -1.3170933e-04 -1.7392256e-01) (0.0000000e+00 0.0000000e+00 0.0000000e+00)) ((5.9936236e+02 1.6081885e+00 -8.9482783e-04) (-9.8483303e-03 7.5528440e-05 8.4618006e-06) (0.0000000e+00 0.0000000e+00 0.0000000e+00))
52            	((4.0111786e+00 -1.4986451e+04 5.6020959e-04) (-2.9779534e-04 -1.2009792e-04 -1.7523931e-01) (0.0000000e+00 0.0000000e+00 0.0000000e+00)) ((5.9936242e+02 1.6084279e+00 -8.9488873e-04) (-9.9230900e-03 8.1454776e-05 9.0753536e-06) (0.0000000e+00 0.0000000e+00 0.0000000e+00))
53            	((4.0147442e+00 -1.4986455e+04 5.6019769e-04) (-3.0933655e-04 -1.1042758e-04 -1.7646171e-01) (0.0000000e+00 0.0000000e+00 0.0000000e+00)) ((5.9936246e+02 1.6086481e+00 -8.9461932e-04) (-9.9925220e-03 8.7504512e-05 9.7485867e-06) (0.0000000e+00 0.0000000e+00 0.0000000e+00))
54            	((4.0193637e+00 -1.4986459e+04 5.6016560e-04) (-3.2260526e-04 -1.0079744e-04 -1.7759599e-01) (0.0000000e+00 0.0000000e+00 0.0000000e+00)) ((5.9936266e+02 1.6089025e+00 -8.9481706e-04) (-1.0057020e-02 9.3676523e-05 1.0606218e-05) (0.0000000e+00 0.0000000e+00 0.0000000e+00))
55            	((4.0228803e+00 -1.4986463e+04 5.6014779e-04) (-3.3775958e-04 -9.1441024e-05 -1.7864616e-01) (0.0000000e+00 0.0000000e+00 0.0000000e+00)) ((5.9936271e+02 1.6091387e+00 -8.9544877e-04) (-1.0116766e-02 1.0003753e-04 1.1431966e-05) (0.0000000e+00 0.0000000e+00 0.0000000e+00))
56            	((4.0253807e+00 -1.4986469e+04 5.6013061e-04) (-3.5363871e-04 -8.3839449e-05 -1.7961833e-01) (0.0000000e+00 0.0000000e+00 0.0000000e+00)) ((5.9936279e+02 1.6093556e+00 -8.9608425e-04) (-1.0172212e-02 1.0639763e-04 1.2367689e-05) (0.0000000e+00 0.0000000e+00 0.0000000e+00))
57            	((4.0278319e+00 -1.4986475e+04 5.6009638e-04) (-3.6822598e-04 -7.6779349e-05 -1.8051505e-01) (0.0000000e+00 0.0000000e+00 0.0000000e+00)) ((5.9936289e+02 1.6095323e+00 -8.9635940e-04) (-1.0223481e-02 1.1289935e-04 1.3249170e-05) (0.0000000e+00 0.0000000e+00 0.0000000e+00))
58            	((4.0304172e+00 -1.4986480e+04 5.6003294e-04) (-3.8283816e-04 -6.8686510e-05 -1.8134114e-01) (0.0000000e+00 0.0000000e+00 0.0000000e+00)) ((5.9936287e+02 1.6097138e+00 -8.9640950e-04) (-1.0270773e-02 1.1953055e-04 1.4010365e-05) (0.0000000e+00 0.0000000e+00 0.0000000e+00))
59            	((4.0329203e+00 -1.4986485e+04 5.5996820e-04) (-3.9807891e-04 -6.3452361e-05 -1.8209875e-01) (0.0000000e+00 0.0000000e+00 0.0000000e+00)) ((5.9936291e+02 1.6098731e+00 -8.9647775e-04) (-1.0314194e-02 1.2622870e-04 1.4709929e-05) (0.0000000e+00 0.0000000e+00 0.0000000e+00))
60            	((4.0357825e+00 -1.4986490e+04 5.5989602e-04) (-4.1308193e-04 -5.8577272e-05 -1.8279464e-01) (0.0000000e+00 0.0000000e+00 0.0000000e+00)) ((5.9936300e+02 1.6100442e+00 -8.9679696e-04) (-1.0354222e-02 1.3301408e-04 1.5434133e-05) (0.0000000e+00 0.0000000e+00 0.0000000e+00))
61            	((4.0392560e+00 -1.4986496e+04 5.5981312e-04) (-4.2830962e-04 -5.6298569e-05 -1.8343228e-01) (0.0000000e+00 0.0000000e+00 0.0000000e+00)) ((5.9936313e+02 1.6102184e+00 -8.9729625e-04) (-1.0390965e-02 1.3980339e-04 1.6096381e-05) (0.0000000e+00 0.0000000e+00 0.0000000e+00))
62            	((4.0430819e+00 -1.4986503e+04 5.5974171e-04) (-4.4401644e-04 -5.3223753e-05 -1.8401322e-01) (0.0000000e+00 0.0000000e+00 0.0000000e+00)) ((5.9936330e+02 1.6104235e+00 -8.9769371e-04) (-1.0424544e-02 1.4671238e-04 1.6706058e-05) (0.0000000e+00 0.0000000e+00 0.0000000e+00))
63            	((4.0468939e+00 -1.4986510e+04 5.5968233e-04) (-4.6013145e-04 -5.0186111e-05 -1.8454163e-01) (0.0000000e+00 0.0000000e+00 0.0000000e+00)) ((5.9936357e+02 1.6106146e+00 -8.9780948e-04) (-1.0455232e-02 1.5376922e-04 1.7337725e-05) (0.0000000e+00 0.0000000e+00 0.0000000e+00))
64            	((4.0505297e+00 -1.4986516e+04 5.5962673e-04) (-4.7679809e-04 -4.7346455e-05 -1.8502297e-01) (0.0000000e+00 0.0000000e+00 0.0000000e+00)) ((5.9936386e+02 1.6107849e+00 -8.9784377e-04) (-1.0483352e-02 1.6083805e-04 1.7970172e-05) (0.0000000e+00 0.0000000e+00 0.0000000e+00))
65            	((4.0539818e+00 -1.4986523e+04 5.5957851e-04) (-4.9410672e-04 -4.4617059e-05 -1.8546014e-01) (0.0000000e+00 0.0000000e+00 0.0000000e+00)) ((5.9936423e+02 1.6109462e+00 -8.9798933e-04) (-1.0509052e-02 1.6782872e-04 1.8643065e-05) (0.0000000e+00 0.0000000e+00 0.0000000e+00))
66            	((4.0572338e+00 -1.4986528e+04 5.5954943e-04) (-5.1006753e-04 -4.3821103e-05 -1.8585694e-01) (0.0000000e+00 0.0000000e+00 0.0000000e+00)) ((5.9936456e+02 1.6110889e+00 -8.9803143e-04) (-1.0532483e-02 1.7479282e-04 1.9126147e-05) (0.0000000e+00 0.0000000e+00 0.0000000e+00))
67            	((4.0606122e+00 -1.4986534e+04 5.5954108e-04) (-5.2806924e-04 -4.4392496e-05 -1.8621382e-01) (0.0000000e+00 0.0000000e+00 0.0000000e+00)) ((5.9936488e+02 1.6112203e+00 -8.9810450e-04) (-1.0553700e-02 1.8184701e-04 1.9723124e-05) (0.0000000e+00 0.0000000e+00 0.0000000e+00))
68            	((4.0643400e+00 -1.4986539e+04 5.5954673e-04) (-5.4750690e-04 -4.6022655e-05 -1.8653469e-01) (0.0000000e+00 0.0000000e+00 0.0000000e+00)) ((5.9936519e+02 1.6113620e+00 -8.9833433e-04) (-1.0572935e-02 1.8900088e-04 2.0438195e-05) (0.0000000e+00 0.0000000e+00 0.0000000e+00))
69            	((4.0680084e+00 -1.4986544e+04 5.5955220e-04) (-5.6581061e-04 -4.7755006e-05 -1.8682280e-01) (0.0000000e+00 0.0000000e+00 0.0000000e+00)) ((5.9936546e+02 1.6114959e+00 -8.9850762e-04) (-1.0590330e-02 1.9614363e-04 2.1055421e-05) (0.0000000e+00 0.0000000e+00 0.0000000e+00))
70            	((4.0715417e+00 -1.4986548e+04 5.5955190e-04) (-5.8373557e-04 -5.1998896e-05 -1.8708082e-01) (0.0000000e+00 0.0000000e+00 0.0000000e+00)) ((5.9936559e+02 1.6116389e+00 -8.9855081e-04) (-1.0606057e-02 2.0343067e-04 2.1577517e-05) (0.0000000e+00 0.0000000e+00 0.0000000e+00))
71            	((4.0748385e+00 -1.4986551e+04 5.5954685e-04) (-6.0244642e-04 -5.6770040e-05 -1.8731178e-01) (0.0000000e+00 0.0000000e+00 0.0000000e+00)) ((5.9936572e+02 1.6118114e+00 -8.9862989e-04) (-1.0620271e-02 2.1097752e-04 2.2143742e-05) (0.0000000e+00 0.0000000e+00 0.0000000e+00))
72            	((4.0775632e+00 -1.4986556e+04 5.5953896e-04) (-6.2157223e-04 -6.2974039e-05 -1.8751529e-01) (0.0000000e+00 0.0000000e+00 0.0000000e+00)) ((5.9936608e+02 1.6119594e+00 -8.9864961e-04) (-1.0632960e-02 2.1859288e-04 2.2778153e-05) (0.0000000e+00 0.0000000e+00 0.0000000e+00))
73            	((4.0802404e+00 -1.4986561e+04 5.5952961e-04) (-6.4019370e-04 -7.0980565e-05 -1.8769595e-01) (0.0000000e+00 0.0000000e+00 0.0000000e+00)) ((5.9936659e+02 1.6121549e+00 -8.9872026e-04) (-1.0644345e-02 2.2630291e-04 2.3277987e-05) (0.0000000e+00 0.0000000e+00 0.0000000e+00))
74            	((4.0829799e+00 -1.4986567e+04 5.5952236e-04) (-6.6040895e-04 -7.9584722e-05 -1.8785509e-01) (0.0000000e+00 0.0000000e+00 0.0000000e+00)) ((5.9936730e+02 1.6123275e+00 -8.9890313e-04) (-1.0654519e-02 2.3415617e-04 2.3897818e-05) (0.0000000e+00 0.0000000e+00 0.0000000e+00))
75            	((4.0859447e+00 -1.4986572e+04 5.5952566e-04) (-6.8188314e-04 -8.8645845e-05 -1.8799457e-01) (0.0000000e+00 0.0000000e+00 0.0000000e+00)) ((5.9936798e+02 1.6124882e+00 -8.9905101e-04) (-1.0663627e-02 2.4201768e-04 2.4582979e-05) (0.0000000e+00 0.0000000e+00 0.0000000e+00))
76            	((4.0886949e+00 -1.4986577e+04 5.5953458e-04) (-7.0097144e-04 -9.9797478e-05 -1.8811510e-01) (0.0000000e+00 0.0000000e+00 0.0000000e+00)) ((5.9936855e+02 1.6126230e+00 -8.9906734e-04) (-1.0671700e-02 2.4983676e-04 2.4994137e-05) (0.0000000e+00 0.0000000e+00 0.0000000e+00))
77            	((4.0912317e+00 -1.4986581e+04 5.5953309e-04) (-7.1953228e-04 -1.1167142e-04 -1.8821829e-01) (0.0000000e+00 0.0000000e+00 0.0000000e+00)) ((5.9936900e+02 1.6127565e+00 -8.9893796e-04) (-1.0678821e-02 2.5770748e-04 2.5452260e-05) (0.0000000e+00 0.0000000e+00 0.0000000e+00))
78            	((4.0936316e+00 -1.4986584e+04 5.5952375e-04) (-7.3822407e-04 -1.2695311e-04 -1.8830471e-01) (0.0000000e+00 0.0000000e+00 0.0000000e+00)) ((5.9936940e+02 1.6129009e+00 -8.9866583e-04) (-1.0685028e-02 2.6565994e-04 2.5902245e-05) (0.0000000e+00 0.0000000e+00 0.0000000e+00))
79            	((4.0959767e+00 -1.4986587e+04 5.5951273e-04) (-7.5578541e-04 -1.4471360e-04 -1.8837599e-01) (0.0000000e+00 0.0000000e+00 0.0000000e+00)) ((5.9936978e+02 1.6130432e+00 -8.9831408e-04) (-1.0690433e-02 2.7372515e-04 2.6322616e-05) (0.0000000e+00 0.0000000e+00 0.0000000e+00))
80            	((4.0984589e+00 -1.4986590e+04 5.5950304e-04) (-7.7359583e-04 -1.6113003e-04 -1.8843432e-01) (0.0000000e+00 0.0000000e+00 0.0000000e+00)) ((5.9937018e+02 1.6132045e+00 -8.9798001e-04) (-1.0695147e-02 2.8183639e-04 2.6863089e-05) (0.0000000e+00 0.0000000e+00 0.0000000e+00))
81            	((4.1010051e+00 -1.4986593e+04 5.5949325e-04) (-7.9162483e-04 -1.7953286e-04 -1.8847796e-01) (0.0000000e+00 0.0000000e+00 0.0000000e+00)) ((5.9937061e+02 1.6133541e+00 -8.9776805e-04) (-1.0699000e-02 2.8995087e-04 2.7372083e-05) (0.0000000e+00 0.0000000e+00 0.0000000e+00))
82            	((4.1042117e+00 -1.4986596e+04 5.5949040e-04) (-8.0935890e-04 -2.0106071e-04 -1.8850877e-01) (0.0000000e+00 0.0000000e+00 0.0000000e+00)) ((5.9937094e+02 1.6134719e+00 -8.9775452e-04) (-1.0702105e-02 2.9806378e-04 2.7738376e-05) (0.0000000e+00 0.0000000e+00 0.0000000e+00))
83            	((4.1077596e+00 -1.4986600e+04 5.5949003e-04) (-8.2817041e-04 -2.2068561e-04 -1.8853025e-01) (0.0000000e+00 0.0000000e+00 0.0000000e+00)) ((5.9937127e+02 1.6135704e+00 -8.9774881e-04) (-1.0704784e-02 3.0621205e-04 2.8327918e-05) (0.0000000e+00 0.0000000e+00 0.0000000e+00))
84            	((4.1107122e+00 -1.4986604e+04 5.5948383e-04) (-8.4440073e-04 -2.4172139e-04 -1.8854196e-01) (0.0000000e+00 0.0000000e+00 0.0000000e+00)) ((5.9937150e+02 1.6136670e+00 -8.9756966e-04) (-1.0706959e-02 3.1426660e-04 2.8697490e-05) (0.0000000e+00 0.0000000e+00 0.0000000e+00))
85            	((4.1129709e+00 -1.4986607e+04 5.5946922e-04) (-8.5936887e-04 -2.6412209e-04 -1.8854298e-01) (0.0000000e+00 0.0000000e+00 0.0000000e+00)) ((5.9937168e+02 1.6137427e+00 -8.9729156e-04) (-1.0708614e-02 3.2223667e-04 2.8977573e-05) (0.0000000e+00 0.0000000e+00 0.0000000e+00))
86            	((4.1155129e+00 -1.4986611e+04 5.5945202e-04) (-8.7379460e-04 -2.8724589e-04 -1.8853710e-01) (0.0000000e+00 0.0000000e+00 0.0000000e+00)) ((5.9937194e+02 1.6138486e+00 -8.9697795e-04) (-1.0709957e-02 3.3038623e-04 2.9424666e-05) (0.0000000e+00 0.0000000e+00 0.0000000e+00))
87            	((4.1182085e+00 -1.4986615e+04 5.5943592e-04) (-8.8633334e-04 -3.1307269e-04 -1.8852224e-01) (0.0000000e+00 0.0000000e+00 0.0000000e+00)) ((5.9937216e+02 1.6139546e+00 -8.9665267e-04) (-1.0710773e-02 3.3857081e-04 2.9714871e-05) (0.0000000e+00 0.0000000e+00 0.0000000e+00))
88            	((4.1207642e+00 -1.4986619e+04 5.5942296e-04) (-8.9754121e-04 -3.4193984e-04 -1.8849908e-01) (0.0000000e+00 0.0000000e+00 0.0000000e+00)) ((5.9937231e+02 1.6140321e+00 -8.9647636e-04) (-1.0711157e-02 3.4687594e-04 2.9892532e-05) (0.0000000e+00 0.0000000e+00 0.0000000e+00))
89            	((4.1239332e+00 -1.4986623e+04 5.5940631e-04) (-9.0891915e-04 -3.7170388e-04 -1.8846777e-01) (0.0000000e+00 0.0000000e+00 0.0000000e+00)) ((5.9937245e+02 1.6141217e+00 -8.9643048e-04) (-1.0711100e-02 3.5532762e-04 3.0096082e-05) (0.0000000e+00 0.0000000e+00 0.0000000e+00))
90            	((4.1274339e+00 -1.4986627e+04 5.5938216e-04) (-9.2101889e-04 -4.0319338e-04 -1.8842935e-01) (0.0000000e+00 0.0000000e+00 0.0000000e+00)) ((5.9937260e+02 1.6141990e+00 -8.9641122e-04) (-1.0710558e-02 3.6388763e-04 3.0270076e-05) (0.0000000e+00 0.0000000e+00 0.0000000e+00))
91            	((4.1304119e+00 -1.4986630e+04 5.5935062e-04) (-9.3371993e-04 -4.3571974e-04 -1.8838342e-01) (0.0000000e+00 0.0000000e+00 0.0000000e+00)) ((5.9937261e+02 1.6142784e+00 -8.9636044e-04) (-1.0709572e-02 3.7242004e-04 3.0349612e-05) (0.0000000e+00 0.0000000e+00 0.0000000e+00))
92            	((4.1334966e+00 -1.4986634e+04 5.5931992e-04) (-9.4612309e-04 -4.6763260e-04 -1.8832965e-01) (0.0000000e+00 0.0000000e+00 0.0000000e+00)) ((5.9937259e+02 1.6143739e+00 -8.9629955e-04) (-1.0708216e-02 3.8091366e-04 3.0430782e-05) (0.0000000e+00 0.0000000e+00 0.0000000e+00))
93            	((4.1366807e+00 -1.4986639e+04 5.5929593e-04) (-9.5917234e-04 -4.9993569e-04 -1.8826937e-01) (0.0000000e+00 0.0000000e+00 0.0000000e+00)) ((5.9937266e+02 1.6144398e+00 -8.9617415e-04) (-1.0706582e-02 3.8943531e-04 3.0594048e-05) (0.0000000e+00 0.0000000e+00 0.0000000e+00))
94            	((4.1395704e+00 -1.4986644e+04 5.5927302e-04) (-9.7085255e-04 -5.3297422e-04 -1.8820190e-01) (0.0000000e+00 0.0000000e+00 0.0000000e+00)) ((5.9937268e+02 1.6144542e+00 -8.9607785e-04) (-1.0704605e-02 3.9799693e-04 3.0770135e-05) (0.0000000e+00 0.0000000e+00 0.0000000e+00))
95            	((4.1420675e+00 -1.4986647e+04 5.5924556e-04) (-9.8048237e-04 -5.6753374e-04 -1.8812698e-01) (0.0000000e+00 0.0000000e+00 0.0000000e+00)) ((5.9937267e+02 1.6144889e+00 -8.9599265e-04) (-1.0702286e-02 4.0668695e-04 3.0909732e-05) (0.0000000e+00 0.0000000e+00 0.0000000e+00))
96            	((4.1445199e+00 -1.4986651e+04 5.5921494e-04) (-9.8957842e-04 -6.0480717e-04 -1.8804393e-01) (0.0000000e+00 0.0000000e+00 0.0000000e+00)) ((5.9937253e+02 1.6145591e+00 -8.9594385e-04) (-1.0699532e-02 4.1548878e-04 3.1000417e-05) (0.0000000e+00 0.0000000e+00 0.0000000e+00))
97            	((4.1475494e+00 -1.4986653e+04 5.5917891e-04) (-9.9722164e-04 -6.4392910e-04 -1.8795384e-01) (0.0000000e+00 0.0000000e+00 0.0000000e+00)) ((5.9937223e+02 1.6146151e+00 -8.9594103e-04) (-1.0696340e-02 4.2439638e-04 3.0932507e-05) (0.0000000e+00 0.0000000e+00 0.0000000e+00))
98            	((4.1507384e+00 -1.4986656e+04 5.5913876e-04) (-1.0033856e-03 -6.8499211e-04 -1.8785676e-01) (0.0000000e+00 0.0000000e+00 0.0000000e+00)) ((5.9937205e+02 1.6146384e+00 -8.9597799e-04) (-1.0692734e-02 4.3354100e-04 3.0766667e-05) (0.0000000e+00 0.0000000e+00 0.0000000e+00))
99            	((4.1549200e+00 -1.4986661e+04 5.5911016e-04) (-1.0104958e-03 -7.2482377e-04 -1.8775134e-01) (0.0000000e+00 0.0000000e+00 0.0000000e+00)) ((5.9937196e+02 1.6146775e+00 -8.9589270e-04) (-1.0688668e-02 4.4279876e-04 3.0778984e-05) (0.0000000e+00 0.0000000e+00 0.0000000e+00))
100           	((4.1586640e+00 -1.4986666e+04 5.5908998e-04) (-1.0186000e-03 -7.6502460e-04 -1.8763766e-01) (0.0000000e+00 0.0000000e+00 0.0000000e+00)) ((5.9937182e+02 1.6146862e+00 -8.9571088e-04) (-1.0684184e-02 4.5198268e-04 3.0823566e-05) (0.0000000e+00 0.0000000e+00 0.0000000e+00))
101           	((4.1616031e+00 -1.4986673e+04 5.5907538e-04) (-1.0273547e-03 -8.0763087e-04 -1.8751573e-01) (0.0000000e+00 0.0000000e+00 0.0000000e+00)) ((5.9937187e+02 1.6146832e+00 -8.9546612e-04) (-1.0679215e-02 4.6114389e-04 3.0832088e-05) (0.0000000e+00 0.0000000e+00 0.0000000e+00))
102           	((4.1640883e+00 -1.4986678e+04 5.5906531e-04) (-1.0357335e-03 -8.5001703e-04 -1.8738443e-01) (0.0000000e+00 0.0000000e+00 0.0000000e+00)) ((5.9937178e+02 1.6146812e+00 -8.9523294e-04) (-1.0673761e-02 4.7030509e-04 3.0877646e-05) (0.0000000e+00 0.0000000e+00 0.0000000e+00))
103           	((4.1664682e+00 -1.4986683e+04 5.5905889e-04) (-1.0450664e-03 -8.9308470e-04 -1.8724514e-01) (0.0000000e+00 0.0000000e+00 0.0000000e+00)) ((5.9937160e+02 1.6146744e+00 -8.9498362e-04) (-1.0667923e-02 4.7940362e-04 3.0942043e-05) (0.0000000e+00 0.0000000e+00 0.0000000e+00))