/*--------------------------------*- C++ -*----------------------------------*\
| =========                 |                                                 |
| \\      /  F ield         | OpenFOAM: The Open Source CFD Toolbox           |
|  \\    /   O peration     | Version:  4.0                                   |
|   \\  /    A nd           | Web:      www.OpenFOAM.org                      |
|    \\/     M anipulation  |                                                 |
\*---------------------------------------------------------------------------*/
FoamFile
{
    version     2.0;
    format      ascii;
    class       volVectorField;
    location    "0";
    object      U;
}
// * * * * * * * * * * * * * * * * * * * * * * * * * * * * * * * * * * * * * //

dimensions      [0 1 -1 0 0 0 0];

// Speed of sound is a = 347.19

// Mach 3
//Uinlet          (1041.57 0 0);
Uinlet          (50 0 0);

internalField   uniform (0 0 0);

boundaryField
{
    inlet
    {
        type            fixedValue;
        value           uniform $Uinlet;
    }
    outlet
    {
        type            inletOutlet;
        inletValue      uniform $Uinlet;
        value           uniform $Uinlet;
    }
    rocket
    {
        type            slip;
    }
    outerSides
    {
        type            freestream;
        freestreamValue uniform $Uinlet;
        value           uniform $Uinlet;
    }

    "(cyc_half.*)"
    {
        type cyclic;
    }

    sym
    {
        type symmetry;
    }
    
}


// ************************************************************************* //
