# Forces      
# CofR        : (0.0000000e+00 0.0000000e+00 0.0000000e+00)
# Time        forces(pressure viscous porous) moment(pressure viscous porous)
1             	((-5.4326493e+00 -1.5058503e+04 -3.3667552e+02) (-6.1981262e-04 -1.4893189e-04 -6.5413969e-02) (0.0000000e+00 0.0000000e+00 0.0000000e+00)) ((5.8753700e+02 5.2435707e-01 3.1531758e-01) (-4.0008091e-03 3.0496074e-05 4.5288963e-05) (0.0000000e+00 0.0000000e+00 0.0000000e+00))
2             	((-1.2184849e+00 -1.5066512e+04 -1.9281842e+02) (-7.0686882e-04 -3.6678148e-04 -5.9157230e-02) (0.0000000e+00 0.0000000e+00 0.0000000e+00)) ((5.9425328e+02 6.3058113e-02 3.9903538e-01) (-3.4641730e-03 -6.4023435e-05 3.4329781e-05) (0.0000000e+00 0.0000000e+00 0.0000000e+00))
3             	((-4.0893246e-01 -1.5057263e+04 -3.4931900e-01) (-5.4664691e-04 -4.5181592e-04 -5.7784591e-02) (0.0000000e+00 0.0000000e+00 0.0000000e+00)) ((6.0150383e+02 -4.4582123e-01 3.9690217e-01) (-3.3373516e-03 -6.2984689e-05 1.4211851e-05) (0.0000000e+00 0.0000000e+00 0.0000000e+00))
4             	((1.4529563e+00 -1.5059312e+04 2.7731854e+01) (-4.3182593e-04 -4.3703157e-04 -5.8843393e-02) (0.0000000e+00 0.0000000e+00 0.0000000e+00)) ((6.0345781e+02 -1.3628484e-01 3.9577375e-01) (-3.3983771e-03 -3.6839351e-05 1.0050308e-05) (0.0000000e+00 0.0000000e+00 0.0000000e+00))
5             	((1.3279309e+00 -1.5064698e+04 -1.2602020e+01) (-2.6834350e-04 -2.4062432e-04 -5.9789633e-02) (0.0000000e+00 0.0000000e+00 0.0000000e+00)) ((6.0271963e+02 4.5934308e-02 3.7565183e-01) (-3.4717549e-03 -2.6472069e-05 -1.1198586e-05) (0.0000000e+00 0.0000000e+00 0.0000000e+00))
6             	((1.0161971e+00 -1.5067892e+04 -3.6394041e+01) (-1.9446470e-04 -1.0403007e-04 -6.0058057e-02) (0.0000000e+00 0.0000000e+00 0.0000000e+00)) ((6.0200662e+02 4.2730425e-02 3.3411279e-01) (-3.4856438e-03 -3.0511402e-05 -2.1980341e-05) (0.0000000e+00 0.0000000e+00 0.0000000e+00))
7             	((1.0933750e+00 -1.5067857e+04 -3.6467592e+01) (-1.3221772e-04 -1.3262470e-06 -6.0084732e-02) (0.0000000e+00 0.0000000e+00 0.0000000e+00)) ((6.0190517e+02 -7.4311323e-03 3.0246798e-01) (-3.4752744e-03 -3.4505171e-05 -3.0127990e-05) (0.0000000e+00 0.0000000e+00 0.0000000e+00))
8             	((1.1089512e+00 -1.5066415e+04 -3.0408774e+01) (-8.5800390e-05 6.8115353e-05 -6.0109572e-02) (0.0000000e+00 0.0000000e+00 0.0000000e+00)) ((6.0203020e+02 -3.7183972e-02 2.9004636e-01) (-3.4626746e-03 -3.4170101e-05 -3.0614221e-05) (0.0000000e+00 0.0000000e+00 0.0000000e+00))
9             	((1.3021383e+00 -1.5065882e+04 -2.8532236e+01) (-6.0872965e-05 1.6785806e-04 -6.0233407e-02) (0.0000000e+00 0.0000000e+00 0.0000000e+00)) ((6.0216189e+02 -2.5153418e-02 2.8177693e-01) (-3.4609052e-03 -3.0886170e-05 -2.6827848e-05) (0.0000000e+00 0.0000000e+00 0.0000000e+00))
10            	((1.4240431e+00 -1.5065673e+04 -2.8938468e+01) (-3.5883156e-05 2.7402603e-04 -6.0446873e-02) (0.0000000e+00 0.0000000e+00 0.0000000e+00)) ((6.0219939e+02 -1.1051804e-02 2.7701122e-01) (-3.4672393e-03 -2.6534368e-05 -2.4377829e-05) (0.0000000e+00 0.0000000e+00 0.0000000e+00))
11            	((1.5178123e+00 -1.5066117e+04 -2.9943288e+01) (-2.1979368e-05 3.7004721e-04 -6.0724792e-02) (0.0000000e+00 0.0000000e+00 0.0000000e+00)) ((6.0225439e+02 -1.2201419e-02 2.7709665e-01) (-3.4799478e-03 -2.1348706e-05 -2.1616087e-05) (0.0000000e+00 0.0000000e+00 0.0000000e+00))
12            	((1.5108806e+00 -1.5066205e+04 -2.9902216e+01) (-4.0417450e-05 4.6117187e-04 -6.1059261e-02) (0.0000000e+00 0.0000000e+00 0.0000000e+00)) ((6.0230009e+02 -1.2154677e-02 2.8158114e-01) (-3.4978541e-03 -1.6571397e-05 -1.5982838e-05) (0.0000000e+00 0.0000000e+00 0.0000000e+00))
13            	((1.3452624e+00 -1.5066214e+04 -2.9673873e+01) (-8.8882280e-05 5.6615205e-04 -6.1485621e-02) (0.0000000e+00 0.0000000e+00 0.0000000e+00)) ((6.0235560e+02 -2.2273632e-02 2.9085133e-01) (-3.5236935e-03 -1.3454951e-05 -5.8513842e-06) (0.0000000e+00 0.0000000e+00 0.0000000e+00))
14            	((1.3029509e+00 -1.5065942e+04 -2.9285938e+01) (-1.6641194e-04 6.6017858e-04 -6.2014863e-02) (0.0000000e+00 0.0000000e+00 0.0000000e+00)) ((6.0238996e+02 -1.1055861e-02 3.0082572e-01) (-3.5569649e-03 -9.8642523e-06 8.1186096e-06) (0.0000000e+00 0.0000000e+00 0.0000000e+00))
15            	((1.1283080e+00 -1.5065434e+04 -2.8844237e+01) (-2.9325383e-04 7.4507082e-04 -6.2651616e-02) (0.0000000e+00 0.0000000e+00 0.0000000e+00)) ((6.0238785e+02 -3.0003166e-02 3.1219603e-01) (-3.5977047e-03 -5.8035000e-06 2.7873558e-05) (0.0000000e+00 0.0000000e+00 0.0000000e+00))
16            	((1.1114751e+00 -1.5065028e+04 -2.8354012e+01) (-4.6133217e-04 8.2157730e-04 -6.3398422e-02) (0.0000000e+00 0.0000000e+00 0.0000000e+00)) ((6.0237204e+02 -1.8250149e-02 3.2836952e-01) (-3.6464126e-03 -8.9269518e-07 5.3013702e-05) (0.0000000e+00 0.0000000e+00 0.0000000e+00))
17            	((1.1299277e+00 -1.5065040e+04 -2.7963370e+01) (-6.6406769e-04 8.8271410e-04 -6.4267252e-02) (0.0000000e+00 0.0000000e+00 0.0000000e+00)) ((6.0241481e+02 -6.2116977e-03 3.4278836e-01) (-3.7039306e-03 4.9087431e-06 8.2371542e-05) (0.0000000e+00 0.0000000e+00 0.0000000e+00))
18            	((1.2051208e+00 -1.5065227e+04 -2.7591602e+01) (-9.0835326e-04 9.2110824e-04 -6.5242851e-02) (0.0000000e+00 0.0000000e+00 0.0000000e+00)) ((6.0246489e+02 1.4179273e-02 3.5414777e-01) (-3.7681182e-03 1.0854710e-05 1.1590975e-04) (0.0000000e+00 0.0000000e+00 0.0000000e+00))
19            	((1.0924870e+00 -1.5065160e+04 -2.7210415e+01) (-1.1991723e-03 9.4230011e-04 -6.6332822e-02) (0.0000000e+00 0.0000000e+00 0.0000000e+00)) ((6.0250172e+02 6.8695540e-03 3.6887867e-01) (-3.8398460e-03 1.7907533e-05 1.5462261e-04) (0.0000000e+00 0.0000000e+00 0.0000000e+00))
20            	((9.9528838e-01 -1.5064799e+04 -2.6777005e+01) (-1.5306738e-03 9.6383517e-04 -6.7533104e-02) (0.0000000e+00 0.0000000e+00 0.0000000e+00)) ((6.0248085e+02 -1.5502180e-02 3.7764089e-01) (-3.9177170e-03 2.7878034e-05 1.9740668e-04) (0.0000000e+00 0.0000000e+00 0.0000000e+00))
21            	((9.6212907e-01 -1.5064495e+04 -2.6489976e+01) (-1.8864268e-03 9.8005143e-04 -6.8938098e-02) (0.0000000e+00 0.0000000e+00 0.0000000e+00)) ((6.0247241e+02 -4.6849124e-02 3.8242220e-01) (-4.0079382e-03 3.7684330e-05 2.3767967e-04) (0.0000000e+00 0.0000000e+00 0.0000000e+00))
22            	((1.0035810e+00 -1.5064368e+04 -2.6191089e+01) (-2.2182899e-03 1.0179258e-03 -7.0591753e-02) (0.0000000e+00 0.0000000e+00 0.0000000e+00)) ((6.0248509e+02 -3.1085165e-02 3.8659528e-01) (-4.1154082e-03 5.0766352e-05 2.7170698e-04) (0.0000000e+00 0.0000000e+00 0.0000000e+00))
23            	((1.5496520e+00 -1.5064277e+04 -2.5934932e+01) (-2.5020408e-03 1.0659044e-03 -7.2525300e-02) (0.0000000e+00 0.0000000e+00 0.0000000e+00)) ((6.0248644e+02 6.0306496e-02 3.9006779e-01) (-4.2406100e-03 6.9564076e-05 2.9781322e-04) (0.0000000e+00 0.0000000e+00 0.0000000e+00))
24            	((1.4522751e+00 -1.5064487e+04 -2.5762510e+01) (-2.7247285e-03 1.1237048e-03 -7.4784045e-02) (0.0000000e+00 0.0000000e+00 0.0000000e+00)) ((6.0253949e+02 5.4837141e-02 3.9428455e-01) (-4.3862308e-03 9.4533997e-05 3.1737679e-04) (0.0000000e+00 0.0000000e+00 0.0000000e+00))
25            	((1.7030438e+00 -1.5064347e+04 -2.5654860e+01) (-2.8942339e-03 1.1973394e-03 -7.7406802e-02) (0.0000000e+00 0.0000000e+00 0.0000000e+00)) ((6.0254422e+02 1.0354368e-01 3.9893853e-01) (-4.5529097e-03 1.2700386e-04 3.3169023e-04) (0.0000000e+00 0.0000000e+00 0.0000000e+00))
26            	((1.8347078e+00 -1.5064202e+04 -2.5512698e+01) (-3.0108660e-03 1.3006978e-03 -8.0438828e-02) (0.0000000e+00 0.0000000e+00 0.0000000e+00)) ((6.0253064e+02 1.1870903e-01 4.0134095e-01) (-4.7440025e-03 1.6629622e-04 3.4079364e-04) (0.0000000e+00 0.0000000e+00 0.0000000e+00))
27            	((9.8107872e-01 -1.5064429e+04 -2.5419601e+01) (-3.0838901e-03 1.4836506e-03 -8.3968198e-02) (0.0000000e+00 0.0000000e+00 0.0000000e+00)) ((6.0258248e+02 -6.1145994e-03 4.0367789e-01) (-4.9695267e-03 2.1244917e-04 3.4866564e-04) (0.0000000e+00 0.0000000e+00 0.0000000e+00))
28            	((8.4580012e-01 -1.5064477e+04 -2.5275841e+01) (-3.1246967e-03 1.7030736e-03 -8.8041772e-02) (0.0000000e+00 0.0000000e+00 0.0000000e+00)) ((6.0261462e+02 -7.9672932e-03 4.0606664e-01) (-5.2291403e-03 2.6525288e-04 3.5531368e-04) (0.0000000e+00 0.0000000e+00 0.0000000e+00))
29            	((1.0531266e+00 -1.5064599e+04 -2.5181113e+01) (-3.1395174e-03 1.9462556e-03 -9.2686886e-02) (0.0000000e+00 0.0000000e+00 0.0000000e+00)) ((6.0264370e+02 4.7149391e-02 4.0836134e-01) (-5.5239251e-03 3.2282908e-04 3.5997145e-04) (0.0000000e+00 0.0000000e+00 0.0000000e+00))
30            	((9.5196386e-01 -1.5064756e+04 -2.5092921e+01) (-3.1239858e-03 2.2182621e-03 -9.7911570e-02) (0.0000000e+00 0.0000000e+00 0.0000000e+00)) ((6.0268952e+02 2.4634780e-02 4.1063163e-01) (-5.8531495e-03 3.8312097e-04 3.6216192e-04) (0.0000000e+00 0.0000000e+00 0.0000000e+00))
31            	((7.8575422e-01 -1.5064776e+04 -2.5021779e+01) (-3.0806371e-03 2.5195061e-03 -1.0371531e-01) (0.0000000e+00 0.0000000e+00 0.0000000e+00)) ((6.0271476e+02 -1.2116937e-03 4.1270579e-01) (-6.2156759e-03 4.4325464e-04 3.6130380e-04) (0.0000000e+00 0.0000000e+00 0.0000000e+00))
32            	((-9.7755776e-02 -1.5064049e+04 -2.4415445e+01) (-3.0258263e-03 2.8166131e-03 -1.1005738e-01) (0.0000000e+00 0.0000000e+00 0.0000000e+00)) ((6.0263728e+02 -7.5220890e-02 4.2161511e-01) (-6.6034023e-03 5.0103110e-04 3.6212101e-04) (0.0000000e+00 0.0000000e+00 0.0000000e+00))
33            	((1.9799665e-01 -1.5063846e+04 -2.4499408e+01) (-2.9270382e-03 3.1197702e-03 -1.1692464e-01) (0.0000000e+00 0.0000000e+00 0.0000000e+00)) ((6.0260691e+02 -6.9287209e-02 4.1980177e-01) (-7.0179680e-03 5.5614971e-04 3.5793073e-04) (0.0000000e+00 0.0000000e+00 0.0000000e+00))
34            	((8.2136385e-01 -1.5064377e+04 -2.4650741e+01) (-2.7803261e-03 3.4309663e-03 -1.2426604e-01) (0.0000000e+00 0.0000000e+00 0.0000000e+00)) ((6.0268023e+02 -2.6204327e-02 4.1880104e-01) (-7.4564030e-03 6.0612261e-04 3.4695824e-04) (0.0000000e+00 0.0000000e+00 0.0000000e+00))
35            	((8.7854842e-01 -1.5064872e+04 -2.4700710e+01) (-2.6083644e-03 3.7501018e-03 -1.3209281e-01) (0.0000000e+00 0.0000000e+00 0.0000000e+00)) ((6.0277621e+02 2.8711311e-03 4.2081235e-01) (-7.9193447e-03 6.4933887e-04 3.3158310e-04) (0.0000000e+00 0.0000000e+00 0.0000000e+00))
36            	((9.9712740e-01 -1.5064979e+04 -2.4705257e+01) (-2.4136821e-03 4.0579369e-03 -1.4037112e-01) (0.0000000e+00 0.0000000e+00 0.0000000e+00)) ((6.0281281e+02 6.2908736e-02 4.2435747e-01) (-8.4048841e-03 6.8417367e-04 3.1168171e-04) (0.0000000e+00 0.0000000e+00 0.0000000e+00))
37            	((1.4597583e+00 -1.5064853e+04 -2.4701672e+01) (-2.2010329e-03 4.3363427e-03 -1.4903597e-01) (0.0000000e+00 0.0000000e+00 0.0000000e+00)) ((6.0279832e+02 1.6115890e-01 4.2716948e-01) (-8.9094162e-03 7.0931458e-04 2.8931662e-04) (0.0000000e+00 0.0000000e+00 0.0000000e+00))
38            	((4.6008022e-01 -1.5064820e+04 -2.4621870e+01) (-2.0172393e-03 4.5859448e-03 -1.5803783e-01) (0.0000000e+00 0.0000000e+00 0.0000000e+00)) ((6.0280814e+02 9.5546708e-03 4.2980191e-01) (-9.4303808e-03 7.2336806e-04 2.7148815e-04) (0.0000000e+00 0.0000000e+00 0.0000000e+00))
39            	((1.7313662e-01 -1.5064599e+04 -2.4545639e+01) (-1.8504686e-03 4.7929785e-03 -1.6732599e-01) (0.0000000e+00 0.0000000e+00 0.0000000e+00)) ((6.0278303e+02 -6.3119371e-02 4.3013975e-01) (-9.9642141e-03 7.2497453e-04 2.5475813e-04) (0.0000000e+00 0.0000000e+00 0.0000000e+00))
40            	((2.7936099e-01 -1.5064398e+04 -2.4098694e+01) (-1.6979992e-03 4.9603577e-03 -1.7685012e-01) (0.0000000e+00 0.0000000e+00 0.0000000e+00)) ((6.0278675e+02 -2.0875689e-02 4.3703996e-01) (-1.0506469e-02 7.1294999e-04 2.4192578e-04) (0.0000000e+00 0.0000000e+00 0.0000000e+00))
41            	((2.9907808e-01 -1.5065442e+04 -2.4501754e+01) (-1.5593449e-03 5.1019079e-03 -1.8652738e-01) (0.0000000e+00 0.0000000e+00 0.0000000e+00)) ((6.0294443e+02 -1.3252831e-02 4.3543472e-01) (-1.1055088e-02 6.8823477e-04 2.3115643e-04) (0.0000000e+00 0.0000000e+00 0.0000000e+00))
42            	((3.3412677e-01 -1.5065514e+04 -2.4599536e+01) (-1.4356483e-03 5.2198716e-03 -1.9630790e-01) (0.0000000e+00 0.0000000e+00 0.0000000e+00)) ((6.0296967e+02 -1.2648887e-02 4.3605835e-01) (-1.1607957e-02 6.5178136e-04 2.2015718e-04) (0.0000000e+00 0.0000000e+00 0.0000000e+00))
43            	((5.4147641e-01 -1.5065401e+04 -2.4577220e+01) (-1.3249629e-03 5.2929435e-03 -2.0611023e-01) (0.0000000e+00 0.0000000e+00 0.0000000e+00)) ((6.0296369e+02 3.5490498e-02 4.3652292e-01) (-1.2158999e-02 6.0294565e-04 2.0900524e-04) (0.0000000e+00 0.0000000e+00 0.0000000e+00))
44            	((4.3904824e-01 -1.5065305e+04 -2.4551055e+01) (-1.2162663e-03 5.3120382e-03 -2.1585965e-01) (0.0000000e+00 0.0000000e+00 0.0000000e+00)) ((6.0295573e+02 2.9000464e-02 4.3835181e-01) (-1.2703726e-02 5.4278878e-04 1.9788396e-04) (0.0000000e+00 0.0000000e+00 0.0000000e+00))
45            	((4.2190563e-02 -1.5065197e+04 -2.4459027e+01) (-1.1134036e-03 5.2926604e-03 -2.2549091e-01) (0.0000000e+00 0.0000000e+00 0.0000000e+00)) ((6.0295145e+02 -2.8372501e-02 4.3964562e-01) (-1.3239614e-02 4.7291759e-04 1.8766613e-04) (0.0000000e+00 0.0000000e+00 0.0000000e+00))
46            	((2.7642395e-01 -1.5065586e+04 -2.4489832e+01) (-9.7683991e-04 5.2467035e-03 -2.3493444e-01) (0.0000000e+00 0.0000000e+00 0.0000000e+00)) ((6.0302524e+02 -1.6279918e-03 4.3992553e-01) (-1.3762542e-02 3.9567935e-04 1.7569373e-04) (0.0000000e+00 0.0000000e+00 0.0000000e+00))
47            	((6.0771180e-01 -1.5065741e+04 -2.4456374e+01) (-8.2139835e-04 5.1625009e-03 -2.4414570e-01) (0.0000000e+00 0.0000000e+00 0.0000000e+00)) ((6.0306400e+02 7.2593109e-02 4.4150510e-01) (-1.4270939e-02 3.1274752e-04 1.6362816e-04) (0.0000000e+00 0.0000000e+00 0.0000000e+00))
48            	((7.8946020e-01 -1.5065474e+04 -2.4434276e+01) (-6.4639352e-04 5.0383198e-03 -2.5307273e-01) (0.0000000e+00 0.0000000e+00 0.0000000e+00)) ((6.0303193e+02 1.1013786e-01 4.4087570e-01) (-1.4762008e-02 2.2563724e-04 1.4894659e-04) (0.0000000e+00 0.0000000e+00 0.0000000e+00))
49            	((9.1598407e-02 -1.5065182e+04 -2.4060615e+01) (-4.5150386e-04 4.8831507e-03 -2.6160949e-01) (0.0000000e+00 0.0000000e+00 0.0000000e+00)) ((6.0301028e+02 3.6863926e-02 4.4731108e-01) (-1.5225698e-02 1.3656196e-04 1.3549947e-04) (0.0000000e+00 0.0000000e+00 0.0000000e+00))
50            	((-6.5427765e-01 -1.5065158e+04 -2.4194182e+01) (-2.6442691e-04 4.7069960e-03 -2.6975248e-01) (0.0000000e+00 0.0000000e+00 0.0000000e+00)) ((6.0300094e+02 -1.2731197e-01 4.4414065e-01) (-1.5665765e-02 5.0831065e-05 1.2219184e-04) (0.0000000e+00 0.0000000e+00 0.0000000e+00))
51            	((-3.4910924e-01 -1.5065878e+04 -2.4441227e+01) (-8.0141680e-05 4.5312225e-03 -2.7746170e-01) (0.0000000e+00 0.0000000e+00 0.0000000e+00)) ((6.0310240e+02 -1.0176001e-01 4.4301250e-01) (-1.6081780e-02 -3.5425412e-05 1.0864674e-04) (0.0000000e+00 0.0000000e+00 0.0000000e+00))
52            	((5.7100321e-01 -1.5065828e+04 -2.4434834e+01) (1.2904051e-04 4.3408178e-03 -2.8471480e-01) (0.0000000e+00 0.0000000e+00 0.0000000e+00)) ((6.0310930e+02 5.2059409e-02 4.4282169e-01) (-1.6472359e-02 -1.2336922e-04 9.3529509e-05) (0.0000000e+00 0.0000000e+00 0.0000000e+00))
53            	((5.9868660e-01 -1.5065713e+04 -2.4379032e+01) (3.6238753e-04 4.1248764e-03 -2.9146074e-01) (0.0000000e+00 0.0000000e+00 0.0000000e+00)) ((6.0310869e+02 6.9066105e-02 4.4286326e-01) (-1.6832806e-02 -2.0911667e-04 7.6245914e-05) (0.0000000e+00 0.0000000e+00 0.0000000e+00))
54            	((8.1140663e-02 -1.5065997e+04 -2.4408261e+01) (5.7765574e-04 3.8834626e-03 -2.9769908e-01) (0.0000000e+00 0.0000000e+00 0.0000000e+00)) ((6.0315876e+02 4.6304670e-03 4.4355832e-01) (-1.7163463e-02 -2.9226543e-04 6.1229915e-05) (0.0000000e+00 0.0000000e+00 0.0000000e+00))
55            	((-8.4433336e-03 -1.5065950e+04 -2.4315728e+01) (8.0305585e-04 3.6176172e-03 -3.0340671e-01) (0.0000000e+00 0.0000000e+00 0.0000000e+00)) ((6.0316277e+02 -7.4591147e-03 4.4230511e-01) (-1.7463274e-02 -3.7116414e-04 4.4758674e-05) (0.0000000e+00 0.0000000e+00 0.0000000e+00))
56            	((-5.5111138e-02 -1.5065999e+04 -2.4375854e+01) (1.0291103e-03 3.3720616e-03 -3.0860921e-01) (0.0000000e+00 0.0000000e+00 0.0000000e+00)) ((6.0316692e+02 -1.1000679e-02 4.4369848e-01) (-1.7734055e-02 -4.4521580e-04 2.7953981e-05) (0.0000000e+00 0.0000000e+00 0.0000000e+00))
57            	((-2.9391146e-01 -1.5065914e+04 -2.4360034e+01) (1.2236107e-03 3.1358097e-03 -3.1333859e-01) (0.0000000e+00 0.0000000e+00 0.0000000e+00)) ((6.0315021e+02 -3.7188739e-02 4.4400130e-01) (-1.7978604e-02 -5.1205276e-04 1.6599640e-05) (0.0000000e+00 0.0000000e+00 0.0000000e+00))
58            	((3.5295589e-01 -1.5065654e+04 -2.4236116e+01) (1.4074462e-03 2.8890259e-03 -3.1754624e-01) (0.0000000e+00 0.0000000e+00 0.0000000e+00)) ((6.0312313e+02 6.5394866e-02 4.4254611e-01) (-1.8194634e-02 -5.7432875e-04 6.2301968e-06) (0.0000000e+00 0.0000000e+00 0.0000000e+00))
59            	((3.6170656e-01 -1.5065481e+04 -2.3789415e+01) (1.5602317e-03 2.6447667e-03 -3.2126931e-01) (0.0000000e+00 0.0000000e+00 0.0000000e+00)) ((6.0312660e+02 9.3338354e-02 4.4729229e-01) (-1.8383687e-02 -6.3459890e-04 -9.2098424e-08) (0.0000000e+00 0.0000000e+00 0.0000000e+00))
60            	((5.2620641e-01 -1.5065913e+04 -2.4086571e+01) (1.7207904e-03 2.4278374e-03 -3.2450917e-01) (0.0000000e+00 0.0000000e+00 0.0000000e+00)) ((6.0318500e+02 7.8818213e-02 4.4261310e-01) (-1.8549580e-02 -6.8971997e-04 -1.0693305e-05) (0.0000000e+00 0.0000000e+00 0.0000000e+00))
61            	((2.4793132e-01 -1.5066312e+04 -2.4252481e+01) (1.8838956e-03 2.2030066e-03 -3.2727150e-01) (0.0000000e+00 0.0000000e+00 0.0000000e+00)) ((6.0323911e+02 2.2907034e-02 4.4139567e-01) (-1.8692549e-02 -7.3799047e-04 -2.4196828e-05) (0.0000000e+00 0.0000000e+00 0.0000000e+00))
62            	((1.5701413e-02 -1.5066335e+04 -2.4242801e+01) (2.0400745e-03 2.0014518e-03 -3.2958412e-01) (0.0000000e+00 0.0000000e+00 0.0000000e+00)) ((6.0324640e+02 -7.8295623e-03 4.4147113e-01) (-1.8813680e-02 -7.7874914e-04 -3.8455792e-05) (0.0000000e+00 0.0000000e+00 0.0000000e+00))
63            	((-2.5135614e-01 -1.5066122e+04 -2.4061393e+01) (2.1837617e-03 1.8489342e-03 -3.3146362e-01) (0.0000000e+00 0.0000000e+00 0.0000000e+00)) ((6.0323220e+02 -2.7820080e-02 4.4308614e-01) (-1.8913777e-02 -8.1255134e-04 -5.1426696e-05) (0.0000000e+00 0.0000000e+00 0.0000000e+00))
64            	((1.5760571e-01 -1.5066009e+04 -2.3931063e+01) (2.2971054e-03 1.7295654e-03 -3.3294566e-01) (0.0000000e+00 0.0000000e+00 0.0000000e+00)) ((6.0322270e+02 4.3579004e-02 4.4332638e-01) (-1.8995556e-02 -8.3925748e-04 -6.0681128e-05) (0.0000000e+00 0.0000000e+00 0.0000000e+00))
65            	((9.0684781e-01 -1.5065907e+04 -2.3864905e+01) (2.3714348e-03 1.6101407e-03 -3.3399568e-01) (0.0000000e+00 0.0000000e+00 0.0000000e+00)) ((6.0320221e+02 1.2320977e-01 4.3956879e-01) (-1.9056038e-02 -8.6204921e-04 -6.7524017e-05) (0.0000000e+00 0.0000000e+00 0.0000000e+00))
66            	((6.1261930e-01 -1.5065944e+04 -2.3884512e+01) (2.4331702e-03 1.5049533e-03 -3.3468455e-01) (0.0000000e+00 0.0000000e+00 0.0000000e+00)) ((6.0319595e+02 6.9216661e-02 4.3868635e-01) (-1.9099623e-02 -8.8205607e-04 -7.5382804e-05) (0.0000000e+00 0.0000000e+00 0.0000000e+00))
67            	((-2.3514059e-01 -1.5066368e+04 -2.3879872e+01) (2.4774351e-03 1.4174894e-03 -3.3503904e-01) (0.0000000e+00 0.0000000e+00 0.0000000e+00)) ((6.0326333e+02 -6.5110071e-02 4.3960753e-01) (-1.9128612e-02 -8.9842874e-04 -8.3617282e-05) (0.0000000e+00 0.0000000e+00 0.0000000e+00))
68            	((-6.1027333e-02 -1.5066603e+04 -2.3876281e+01) (2.4877503e-03 1.3398963e-03 -3.3505831e-01) (0.0000000e+00 0.0000000e+00 0.0000000e+00)) ((6.0331578e+02 -2.7239243e-02 4.3958342e-01) (-1.9143430e-02 -9.1049755e-04 -8.9846975e-05) (0.0000000e+00 0.0000000e+00 0.0000000e+00))
69            	((-3.9830522e-01 -1.5066233e+04 -2.3434641e+01) (2.4833599e-03 1.2623510e-03 -3.3474124e-01) (0.0000000e+00 0.0000000e+00 0.0000000e+00)) ((6.0329133e+02 -1.7183569e-02 4.4549499e-01) (-1.9140851e-02 -9.2031328e-04 -9.1711748e-05) (0.0000000e+00 0.0000000e+00 0.0000000e+00))
70            	((1.6687045e-01 -1.5065947e+04 -2.3510205e+01) (2.4571833e-03 1.2144660e-03 -3.3413438e-01) (0.0000000e+00 0.0000000e+00 0.0000000e+00)) ((6.0325132e+02 1.8716831e-02 4.4042350e-01) (-1.9125511e-02 -9.2659462e-04 -9.3237280e-05) (0.0000000e+00 0.0000000e+00 0.0000000e+00))
71            	((7.2763553e-01 -1.5066392e+04 -2.3610296e+01) (2.4316093e-03 1.1977822e-03 -3.3329752e-01) (0.0000000e+00 0.0000000e+00 0.0000000e+00)) ((6.0330670e+02 7.1585523e-02 4.3802633e-01) (-1.9102006e-02 -9.2795974e-04 -9.7434757e-05) (0.0000000e+00 0.0000000e+00 0.0000000e+00))
72            	((6.8651590e-01 -1.5066764e+04 -2.3605025e+01) (2.3835837e-03 1.2084125e-03 -3.3220629e-01) (0.0000000e+00 0.0000000e+00 0.0000000e+00)) ((6.0336218e+02 7.5042949e-02 4.3822672e-01) (-1.9068309e-02 -9.2767209e-04 -1.0073935e-04) (0.0000000e+00 0.0000000e+00 0.0000000e+00))
73            	((4.7928050e-01 -1.5066813e+04 -2.3574457e+01) (2.2973886e-03 1.2318923e-03 -3.3088145e-01) (0.0000000e+00 0.0000000e+00 0.0000000e+00)) ((6.0337930e+02 5.9377594e-02 4.3874688e-01) (-1.9025341e-02 -9.2561718e-04 -1.0188435e-04) (0.0000000e+00 0.0000000e+00 0.0000000e+00))
74            	((3.8135702e-01 -1.5066095e+04 -2.3269037e+01) (2.2091499e-03 1.2582288e-03 -3.2933552e-01) (0.0000000e+00 0.0000000e+00 0.0000000e+00)) ((6.0329416e+02 2.8109768e-02 4.3719696e-01) (-1.8971793e-02 -9.2201361e-04 -1.0370214e-04) (0.0000000e+00 0.0000000e+00 0.0000000e+00))
75            	((3.3366446e-01 -1.5065900e+04 -2.3184341e+01) (2.1031686e-03 1.2982528e-03 -3.2758019e-01) (0.0000000e+00 0.0000000e+00 0.0000000e+00)) ((6.0325839e+02 -4.4956016e-03 4.3643980e-01) (-1.8908263e-02 -9.1842339e-04 -1.0603845e-04) (0.0000000e+00 0.0000000e+00 0.0000000e+00))
76            	((-2.2456101e-01 -1.5066080e+04 -2.3160523e+01) (1.9743890e-03 1.3521830e-03 -3.2565035e-01) (0.0000000e+00 0.0000000e+00 0.0000000e+00)) ((6.0328312e+02 -9.0143516e-02 4.3701457e-01) (-1.8838415e-02 -9.1236635e-04 -1.0699331e-04) (0.0000000e+00 0.0000000e+00 0.0000000e+00))
77            	((4.1310017e-01 -1.5066233e+04 -2.3118277e+01) (1.8365246e-03 1.4323349e-03 -3.2356834e-01) (0.0000000e+00 0.0000000e+00 0.0000000e+00)) ((6.0330332e+02 6.4708432e-02 4.3774361e-01) (-1.8761916e-02 -9.0386049e-04 -1.0664409e-04) (0.0000000e+00 0.0000000e+00 0.0000000e+00))
78            	((6.2289623e-01 -1.5066160e+04 -2.3044198e+01) (1.6762562e-03 1.5288248e-03 -3.2134910e-01) (0.0000000e+00 0.0000000e+00 0.0000000e+00)) ((6.0329922e+02 1.0557112e-01 4.3741879e-01) (-1.8679933e-02 -8.9268083e-04 -1.0381512e-04) (0.0000000e+00 0.0000000e+00 0.0000000e+00))
79            	((1.8074703e-01 -1.5066088e+04 -2.2595200e+01) (1.4835190e-03 1.6158001e-03 -3.1900842e-01) (0.0000000e+00 0.0000000e+00 0.0000000e+00)) ((6.0332799e+02 6.3792861e-02 4.4274084e-01) (-1.8592629e-02 -8.7901226e-04 -9.4494475e-05) (0.0000000e+00 0.0000000e+00 0.0000000e+00))
80            	((2.9592753e-01 -1.5066856e+04 -2.2933873e+01) (1.2644294e-03 1.7242536e-03 -3.1657174e-01) (0.0000000e+00 0.0000000e+00 0.0000000e+00)) ((6.0342633e+02 2.0793705e-02 4.3810328e-01) (-1.8503703e-02 -8.6442417e-04 -8.3231378e-05) (0.0000000e+00 0.0000000e+00 0.0000000e+00))
81            	((5.5149138e-01 -1.5066628e+04 -2.2975829e+01) (1.0087844e-03 1.8643429e-03 -3.1407073e-01) (0.0000000e+00 0.0000000e+00 0.0000000e+00)) ((6.0339820e+02 4.4837326e-02 4.3621376e-01) (-1.8415661e-02 -8.5033082e-04 -6.9800155e-05) (0.0000000e+00 0.0000000e+00 0.0000000e+00))
82            	((4.5775813e-01 -1.5066024e+04 -2.2768749e+01) (7.5275532e-04 2.0365488e-03 -3.1149303e-01) (0.0000000e+00 0.0000000e+00 0.0000000e+00)) ((6.0332418e+02 3.7042713e-02 4.3611145e-01) (-1.8325579e-02 -8.3626399e-04 -5.4735695e-05) (0.0000000e+00 0.0000000e+00 0.0000000e+00))
83            	((2.7659027e-01 -1.5066190e+04 -2.2706237e+01) (4.8434961e-04 2.2220203e-03 -3.0884035e-01) (0.0000000e+00 0.0000000e+00 0.0000000e+00)) ((6.0334264e+02 1.1276903e-02 4.3670731e-01) (-1.8233179e-02 -8.2138536e-04 -3.6873426e-05) (0.0000000e+00 0.0000000e+00 0.0000000e+00))
84            	((2.2817547e-01 -1.5066741e+04 -2.2743032e+01) (2.1230621e-04 2.4260816e-03 -3.0614945e-01) (0.0000000e+00 0.0000000e+00 0.0000000e+00)) ((6.0342584e+02 8.7653584e-03 4.3705213e-01) (-1.8141292e-02 -8.0457037e-04 -1.6117702e-05) (0.0000000e+00 0.0000000e+00 0.0000000e+00))
85            	((5.2594789e-01 -1.5066763e+04 -2.2654934e+01) (-7.5790686e-05 2.6499614e-03 -3.0342544e-01) (0.0000000e+00 0.0000000e+00 0.0000000e+00)) ((6.0344086e+02 4.7821292e-02 4.3642902e-01) (-1.8050262e-02 -7.8582063e-04 6.3790054e-06) (0.0000000e+00 0.0000000e+00 0.0000000e+00))
86            	((9.3351799e-01 -1.5066359e+04 -2.2478221e+01) (-3.7140237e-04 2.8986604e-03 -3.0066197e-01) (0.0000000e+00 0.0000000e+00 0.0000000e+00)) ((6.0340193e+02 1.0246213e-01 4.3503523e-01) (-1.7958320e-02 -7.6517536e-04 3.0892932e-05) (0.0000000e+00 0.0000000e+00 0.0000000e+00))
87            	((3.6906809e-01 -1.5066391e+04 -2.2430783e+01) (-6.7748093e-04 3.1680366e-03 -2.9786506e-01) (0.0000000e+00 0.0000000e+00 0.0000000e+00)) ((6.0341701e+02 1.6748752e-02 4.3542734e-01) (-1.7866043e-02 -7.4213109e-04 5.8166846e-05) (0.0000000e+00 0.0000000e+00 0.0000000e+00))
88            	((2.3761903e-01 -1.5066427e+04 -2.2378173e+01) (-1.0075247e-03 3.4589714e-03 -2.9505471e-01) (0.0000000e+00 0.0000000e+00 0.0000000e+00)) ((6.0342945e+02 1.5693468e-02 4.3643654e-01) (-1.7774580e-02 -7.1784726e-04 8.8145651e-05) (0.0000000e+00 0.0000000e+00 0.0000000e+00))
89            	((-2.0175717e-01 -1.5066029e+04 -2.1971993e+01) (-1.3703609e-03 3.7418691e-03 -2.9222380e-01) (0.0000000e+00 0.0000000e+00 0.0000000e+00)) ((6.0338873e+02 -4.9302385e-03 4.4258773e-01) (-1.7680506e-02 -6.9122178e-04 1.2421182e-04) (0.0000000e+00 0.0000000e+00 0.0000000e+00))
90            	((1.1486477e-02 -1.5066437e+04 -2.2295915e+01) (-1.7448489e-03 4.0507346e-03 -2.8940556e-01) (0.0000000e+00 0.0000000e+00 0.0000000e+00)) ((6.0343363e+02 -4.4826372e-03 4.3847679e-01) (-1.7588768e-02 -6.6405909e-04 1.6111587e-04) (0.0000000e+00 0.0000000e+00 0.0000000e+00))
91            	((9.5932658e-01 -1.5066690e+04 -2.2364956e+01) (-2.0958979e-03 4.3988290e-03 -2.8661660e-01) (0.0000000e+00 0.0000000e+00 0.0000000e+00)) ((6.0347249e+02 1.2080827e-01 4.3627174e-01) (-1.7500236e-02 -6.3761815e-04 1.9428390e-04) (0.0000000e+00 0.0000000e+00 0.0000000e+00))
92            	((7.4253657e-01 -1.5066681e+04 -2.2272962e+01) (-2.4387796e-03 4.7708912e-03 -2.8385547e-01) (0.0000000e+00 0.0000000e+00 0.0000000e+00)) ((6.0348987e+02 7.8019840e-02 4.3591807e-01) (-1.7415170e-02 -6.1163845e-04 2.2642828e-04) (0.0000000e+00 0.0000000e+00 0.0000000e+00))
93            	((7.1461198e-01 -1.5066553e+04 -2.2154741e+01) (-2.7723697e-03 5.1537066e-03 -2.8111879e-01) (0.0000000e+00 0.0000000e+00 0.0000000e+00)) ((6.0350061e+02 6.9978782e-02 4.3506123e-01) (-1.7331546e-02 -5.8426316e-04 2.5807500e-04) (0.0000000e+00 0.0000000e+00 0.0000000e+00))
94            	((6.1473291e-01 -1.5066452e+04 -2.2063062e+01) (-3.0936477e-03 5.5427147e-03 -2.7841435e-01) (0.0000000e+00 0.0000000e+00 0.0000000e+00)) ((6.0349979e+02 6.1680867e-02 4.3449409e-01) (-1.7249394e-02 -5.5495463e-04 2.8741927e-04) (0.0000000e+00 0.0000000e+00 0.0000000e+00))
95            	((7.0475708e-01 -1.5066755e+04 -2.2159194e+01) (-3.4102520e-03 5.9376411e-03 -2.7575585e-01) (0.0000000e+00 0.0000000e+00 0.0000000e+00)) ((6.0353872e+02 8.2375613e-02 4.3497665e-01) (-1.7169969e-02 -5.2559018e-04 3.1506483e-04) (0.0000000e+00 0.0000000e+00 0.0000000e+00))
96            	((2.6123379e-01 -1.5066589e+04 -2.2157413e+01) (-3.7122470e-03 6.3478262e-03 -2.7313625e-01) (0.0000000e+00 0.0000000e+00 0.0000000e+00)) ((6.0351346e+02 2.2126779e-02 4.3512759e-01) (-1.7092588e-02 -4.9608689e-04 3.4109009e-04) (0.0000000e+00 0.0000000e+00 0.0000000e+00))
97            	((-8.6829065e-02 -1.5066118e+04 -2.2060108e+01) (-4.0086061e-03 6.7711488e-03 -2.7053005e-01) (0.0000000e+00 0.0000000e+00 0.0000000e+00)) ((6.0345968e+02 -2.6850257e-02 4.3521362e-01) (-1.7014408e-02 -4.6605765e-04 3.6701471e-04) (0.0000000e+00 0.0000000e+00 0.0000000e+00))
98            	((8.4729472e-02 -1.5065667e+04 -2.1818716e+01) (-4.2886330e-03 7.1765186e-03 -2.6793820e-01) (0.0000000e+00 0.0000000e+00 0.0000000e+00)) ((6.0341927e+02 -5.0196470e-03 4.3387648e-01) (-1.6934745e-02 -4.3735647e-04 3.9019899e-04) (0.0000000e+00 0.0000000e+00 0.0000000e+00))
99            	((3.6845948e-01 -1.5065460e+04 -2.1355278e+01) (-4.5591668e-03 7.5542122e-03 -2.6537538e-01) (0.0000000e+00 0.0000000e+00 0.0000000e+00)) ((6.0342330e+02 8.3160636e-02 4.3774387e-01) (-1.6854165e-02 -4.0930674e-04 4.1494030e-04) (0.0000000e+00 0.0000000e+00 0.0000000e+00))
100           	((6.7487644e-01 -1.5066300e+04 -2.1805312e+01) (-4.8174943e-03 7.9341446e-03 -2.6288235e-01) (0.0000000e+00 0.0000000e+00 0.0000000e+00)) ((6.0353802e+02 8.5393186e-02 4.3348020e-01) (-1.6777867e-02 -3.8182552e-04 4.3646667e-04) (0.0000000e+00 0.0000000e+00 0.0000000e+00))
101           	((6.4074238e-01 -1.5066866e+04 -2.2032921e+01) (-5.0216665e-03 8.3329757e-03 -2.6045884e-01) (0.0000000e+00 0.0000000e+00 0.0000000e+00)) ((6.0361107e+02 6.7084758e-02 4.3205451e-01) (-1.6706875e-02 -3.5388509e-04 4.5154577e-04) (0.0000000e+00 0.0000000e+00 0.0000000e+00))
102           	((1.9608494e-01 -1.5066886e+04 -2.2001745e+01) (-5.1975312e-03 8.7369881e-03 -2.5807098e-01) (0.0000000e+00 0.0000000e+00 0.0000000e+00)) ((6.0362660e+02 1.1391371e-02 4.3227452e-01) (-1.6637754e-02 -3.2599473e-04 4.6343269e-04) (0.0000000e+00 0.0000000e+00 0.0000000e+00))
103           	((1.1022334e-01 -1.5066726e+04 -2.1963254e+01) (-5.3617977e-03 9.1460027e-03 -2.5571258e-01) (0.0000000e+00 0.0000000e+00 0.0000000e+00)) ((6.0361839e+02 8.3310504e-04 4.3213981e-01) (-1.6569101e-02 -2.9946092e-04 4.7666796e-04) (0.0000000e+00 0.0000000e+00 0.0000000e+00))