# Force coefficients
# liftDir     : (0.0000000e+00 1.0000000e+00 0.0000000e+00)
# dragDir     : (0.0000000e+00 0.0000000e+00 1.0000000e+00)
# pitchAxis   : (1.0000000e+00 0.0000000e+00 0.0000000e+00)
# magUInf     : 1.0000000e+02
# lRef        : 1.5200000e-01
# Aref        : 1.8000000e-02
# CofR        : (0.0000000e+00 0.0000000e+00 0.0000000e+00)
# Time        	Cm            	Cd            	Cl            	Cl(f)         	Cl(r)         
1             	3.7346364e+01	-3.2535356e+00	-1.4549279e+02	-3.5400028e+01	-1.1009276e+02
2             	3.7773317e+01	-1.8635515e+00	-1.4557017e+02	-3.5011768e+01	-1.1055840e+02
3             	3.8234204e+01	-3.9333681e-03	-1.4548081e+02	-3.4506200e+01	-1.1097461e+02
4             	3.8358404e+01	2.6737208e-01	-1.4550060e+02	-3.4391896e+01	-1.1110870e+02
5             	3.8311477e+01	-1.2233632e-01	-1.4555264e+02	-3.4464845e+01	-1.1108780e+02
6             	3.8266154e+01	-3.5221351e-01	-1.4558350e+02	-3.4525597e+01	-1.1105791e+02
7             	3.8259706e+01	-3.5292441e-01	-1.4558316e+02	-3.4531874e+01	-1.1105129e+02
8             	3.8267654e+01	-2.9438534e-01	-1.4556923e+02	-3.4516960e+01	-1.1105227e+02
9             	3.8276025e+01	-2.7625574e-01	-1.4556408e+02	-3.4506014e+01	-1.1105806e+02
10            	3.8278408e+01	-2.8018275e-01	-1.4556206e+02	-3.4502620e+01	-1.1105944e+02
11            	3.8281904e+01	-2.8989384e-01	-1.4556635e+02	-3.4501270e+01	-1.1106508e+02
12            	3.8284808e+01	-2.8950025e-01	-1.4556719e+02	-3.4498789e+01	-1.1106840e+02
13            	3.8288335e+01	-2.8729815e-01	-1.4556728e+02	-3.4495304e+01	-1.1107197e+02
14            	3.8290516e+01	-2.8355510e-01	-1.4556465e+02	-3.4491808e+01	-1.1107284e+02
15            	3.8290380e+01	-2.7929361e-01	-1.4555975e+02	-3.4489493e+01	-1.1107025e+02
16            	3.8289372e+01	-2.7456435e-01	-1.4555582e+02	-3.4488536e+01	-1.1106728e+02
17            	3.8292087e+01	-2.7079843e-01	-1.4555593e+02	-3.4485878e+01	-1.1107005e+02
18            	3.8295266e+01	-2.6721589e-01	-1.4555774e+02	-3.4483603e+01	-1.1107414e+02
19            	3.8297602e+01	-2.6354346e-01	-1.4555709e+02	-3.4480943e+01	-1.1107615e+02
20            	3.8296271e+01	-2.5936752e-01	-1.4555360e+02	-3.4480529e+01	-1.1107307e+02
21            	3.8295728e+01	-2.5660786e-01	-1.4555067e+02	-3.4479607e+01	-1.1107106e+02
22            	3.8296528e+01	-2.5373604e-01	-1.4554944e+02	-3.4478193e+01	-1.1107125e+02
23            	3.8296606e+01	-2.5127978e-01	-1.4554856e+02	-3.4477677e+01	-1.1107089e+02
24            	3.8299969e+01	-2.4963569e-01	-1.4555059e+02	-3.4475325e+01	-1.1107526e+02
25            	3.8300258e+01	-2.4862094e-01	-1.4554924e+02	-3.4474360e+01	-1.1107488e+02
26            	3.8299383e+01	-2.4727668e-01	-1.4554783e+02	-3.4474534e+01	-1.1107330e+02
27            	3.8302664e+01	-2.4641130e-01	-1.4555003e+02	-3.4472350e+01	-1.1107768e+02
28            	3.8304690e+01	-2.4506167e-01	-1.4555049e+02	-3.4470555e+01	-1.1107994e+02
29            	3.8306520e+01	-2.4419131e-01	-1.4555166e+02	-3.4469312e+01	-1.1108235e+02
30            	3.8309412e+01	-2.4338968e-01	-1.4555317e+02	-3.4467174e+01	-1.1108600e+02
31            	3.8310993e+01	-2.4275840e-01	-1.4555337e+02	-3.4465691e+01	-1.1108768e+02
32            	3.8306043e+01	-2.3696138e-01	-1.4554634e+02	-3.4467127e+01	-1.1107921e+02
33            	3.8304087e+01	-2.3783896e-01	-1.4554437e+02	-3.4468101e+01	-1.1107627e+02
34            	3.8308720e+01	-2.3937205e-01	-1.4554950e+02	-3.4466032e+01	-1.1108347e+02
35            	3.8314791e+01	-2.3993046e-01	-1.4555429e+02	-3.4462352e+01	-1.1109193e+02
36            	3.8317087e+01	-2.4005438e-01	-1.4555531e+02	-3.4460570e+01	-1.1109474e+02
37            	3.8316133e+01	-2.4010346e-01	-1.4555409e+02	-3.4460912e+01	-1.1109318e+02
38            	3.8316724e+01	-2.3941940e-01	-1.4555377e+02	-3.4460161e+01	-1.1109361e+02
39            	3.8315095e+01	-2.3877261e-01	-1.4555164e+02	-3.4460725e+01	-1.1109091e+02
40            	3.8315296e+01	-2.3454632e-01	-1.4554969e+02	-3.4459550e+01	-1.1109014e+02
41            	3.8325285e+01	-2.3853412e-01	-1.4555977e+02	-3.4454603e+01	-1.1110517e+02
42            	3.8326854e+01	-2.3957337e-01	-1.4556047e+02	-3.4453383e+01	-1.1110709e+02
43            	3.8326438e+01	-2.3945247e-01	-1.4555938e+02	-3.4453251e+01	-1.1110613e+02
44            	3.8325898e+01	-2.3929386e-01	-1.4555845e+02	-3.4453327e+01	-1.1110512e+02
45            	3.8325592e+01	-2.3849775e-01	-1.4555741e+02	-3.4453111e+01	-1.1110430e+02
46            	3.8330249e+01	-2.3888663e-01	-1.4556117e+02	-3.4450334e+01	-1.1111083e+02
47            	3.8332680e+01	-2.3865236e-01	-1.4556267e+02	-3.4448654e+01	-1.1111401e+02
48            	3.8330611e+01	-2.3852511e-01	-1.4556009e+02	-3.4449433e+01	-1.1111065e+02
49            	3.8329205e+01	-2.3499734e-01	-1.4555727e+02	-3.4449431e+01	-1.1110784e+02
50            	3.8328583e+01	-2.3636652e-01	-1.4555703e+02	-3.4449934e+01	-1.1110710e+02
51            	3.8335006e+01	-2.3882791e-01	-1.4556399e+02	-3.4446990e+01	-1.1111700e+02
52            	3.8335420e+01	-2.3883622e-01	-1.4556352e+02	-3.4446338e+01	-1.1111718e+02
53            	3.8335358e+01	-2.3836225e-01	-1.4556240e+02	-3.4445844e+01	-1.1111656e+02
54            	3.8338520e+01	-2.3870493e-01	-1.4556515e+02	-3.4444054e+01	-1.1112109e+02
55            	3.8338756e+01	-2.3786604e-01	-1.4556470e+02	-3.4443596e+01	-1.1112111e+02
56            	3.8339002e+01	-2.3849723e-01	-1.4556517e+02	-3.4443584e+01	-1.1112159e+02
57            	3.8337925e+01	-2.3839007e-01	-1.4556436e+02	-3.4444255e+01	-1.1112010e+02
58            	3.8336190e+01	-2.3723345e-01	-1.4556185e+02	-3.4444735e+01	-1.1111711e+02
59            	3.8336398e+01	-2.3295347e-01	-1.4556017e+02	-3.4443689e+01	-1.1111649e+02
60            	3.8340100e+01	-2.3585585e-01	-1.4556435e+02	-3.4442076e+01	-1.1112228e+02
61            	3.8343530e+01	-2.3748553e-01	-1.4556821e+02	-3.4440574e+01	-1.1112763e+02
62            	3.8343986e+01	-2.3741435e-01	-1.4556844e+02	-3.4440233e+01	-1.1112821e+02
63            	3.8343077e+01	-2.3567978e-01	-1.4556638e+02	-3.4440112e+01	-1.1112627e+02
64            	3.8342468e+01	-2.3443487e-01	-1.4556529e+02	-3.4440177e+01	-1.1112511e+02
65            	3.8341162e+01	-2.3380580e-01	-1.4556430e+02	-3.4440990e+01	-1.1112331e+02
66            	3.8340761e+01	-2.3400190e-01	-1.4556466e+02	-3.4441569e+01	-1.1112309e+02
67            	3.8345042e+01	-2.3396050e-01	-1.4556876e+02	-3.4439338e+01	-1.1112942e+02
68            	3.8348375e+01	-2.3392599e-01	-1.4557103e+02	-3.4437141e+01	-1.1113389e+02
69            	3.8346821e+01	-2.2965587e-01	-1.4556745e+02	-3.4436905e+01	-1.1113055e+02
70            	3.8344279e+01	-2.3038009e-01	-1.4556469e+02	-3.4438068e+01	-1.1112663e+02
71            	3.8347801e+01	-2.3133906e-01	-1.4556899e+02	-3.4436695e+01	-1.1113230e+02
72            	3.8351329e+01	-2.3127760e-01	-1.4557259e+02	-3.4434964e+01	-1.1113762e+02
73            	3.8352420e+01	-2.3096946e-01	-1.4557306e+02	-3.4434111e+01	-1.1113895e+02
74            	3.8347012e+01	-2.2800360e-01	-1.4556612e+02	-3.4436050e+01	-1.1113007e+02
75            	3.8344742e+01	-2.2716832e-01	-1.4556424e+02	-3.4437376e+01	-1.1112686e+02
76            	3.8346319e+01	-2.2691955e-01	-1.4556598e+02	-3.4436669e+01	-1.1112931e+02
77            	3.8347607e+01	-2.2649126e-01	-1.4556746e+02	-3.4436122e+01	-1.1113134e+02
78            	3.8347352e+01	-2.2575408e-01	-1.4556675e+02	-3.4436023e+01	-1.1113073e+02
79            	3.8349186e+01	-2.2139332e-01	-1.4556605e+02	-3.4433839e+01	-1.1113221e+02
80            	3.8355443e+01	-2.2464198e-01	-1.4557347e+02	-3.4431290e+01	-1.1114218e+02
81            	3.8353660e+01	-2.2502319e-01	-1.4557127e+02	-3.4431974e+01	-1.1113929e+02
82            	3.8348961e+01	-2.2299751e-01	-1.4556543e+02	-3.4433753e+01	-1.1113168e+02
83            	3.8350140e+01	-2.2236790e-01	-1.4556704e+02	-3.4433378e+01	-1.1113366e+02
84            	3.8355435e+01	-2.2269741e-01	-1.4557235e+02	-3.4430742e+01	-1.1114161e+02
85            	3.8356395e+01	-2.2181990e-01	-1.4557256e+02	-3.4429886e+01	-1.1114268e+02
86            	3.8353927e+01	-2.2008582e-01	-1.4556866e+02	-3.4430404e+01	-1.1113826e+02
87            	3.8354891e+01	-2.1960047e-01	-1.4556897e+02	-3.4429592e+01	-1.1113937e+02
88            	3.8355688e+01	-2.1906500e-01	-1.4556931e+02	-3.4428968e+01	-1.1114034e+02
89            	3.8353105e+01	-2.1511321e-01	-1.4556546e+02	-3.4429628e+01	-1.1113584e+02
90            	3.8355965e+01	-2.1821566e-01	-1.4556940e+02	-3.4428736e+01	-1.1114067e+02
91            	3.8358441e+01	-2.1885578e-01	-1.4557184e+02	-3.4427480e+01	-1.1114436e+02
92            	3.8359551e+01	-2.1794026e-01	-1.4557175e+02	-3.4426324e+01	-1.1114543e+02
93            	3.8360239e+01	-2.1677159e-01	-1.4557051e+02	-3.4425017e+01	-1.1114549e+02
94            	3.8360192e+01	-2.1585967e-01	-1.4556953e+02	-3.4424572e+01	-1.1114496e+02
95            	3.8362671e+01	-2.1676280e-01	-1.4557245e+02	-3.4423556e+01	-1.1114890e+02
96            	3.8361071e+01	-2.1672028e-01	-1.4557085e+02	-3.4424354e+01	-1.1114650e+02
97            	3.8357657e+01	-2.1575495e-01	-1.4556629e+02	-3.4425489e+01	-1.1114080e+02
98            	3.8355094e+01	-2.1339763e-01	-1.4556193e+02	-3.4425869e+01	-1.1113606e+02
99            	3.8355355e+01	-2.0889520e-01	-1.4555992e+02	-3.4424607e+01	-1.1113532e+02
100           	3.8362652e+01	-2.1321927e-01	-1.4556804e+02	-3.4421367e+01	-1.1114667e+02
101           	3.8367300e+01	-2.1539498e-01	-1.4557350e+02	-3.4419451e+01	-1.1115405e+02
102           	3.8368291e+01	-2.1507068e-01	-1.4557370e+02	-3.4418558e+01	-1.1115514e+02
103           	3.8367774e+01	-2.1467600e-01	-1.4557214e+02	-3.4418295e+01	-1.1115384e+02
104           	3.8367224e+01	-2.1299634e-01	-1.4557005e+02	-3.4417803e+01	-1.1115225e+02
105           	3.8367478e+01	-2.1171521e-01	-1.4556839e+02	-3.4416717e+01	-1.1115167e+02
106           	3.8367460e+01	-2.1222162e-01	-1.4556793e+02	-3.4416506e+01	-1.1115143e+02
107           	3.8364523e+01	-2.1185985e-01	-1.4556496e+02	-3.4417959e+01	-1.1114700e+02
108           	3.8365152e+01	-2.1112372e-01	-1.4556485e+02	-3.4417275e+01	-1.1114758e+02
109           	3.8365798e+01	-2.0673996e-01	-1.4556271e+02	-3.4415558e+01	-1.1114715e+02
110           	3.8373312e+01	-2.1088592e-01	-1.4557055e+02	-3.4411963e+01	-1.1115859e+02
111           	3.8375664e+01	-2.1222032e-01	-1.4557294e+02	-3.4410805e+01	-1.1116213e+02
112           	3.8377476e+01	-2.1196115e-01	-1.4557344e+02	-3.4409245e+01	-1.1116420e+02
113           	3.8377203e+01	-2.1062659e-01	-1.4557137e+02	-3.4408482e+01	-1.1116289e+02
114           	3.8375482e+01	-2.0856704e-01	-1.4556735e+02	-3.4408193e+01	-1.1115916e+02
115           	3.8373988e+01	-2.0731468e-01	-1.4556456e+02	-3.4408294e+01	-1.1115627e+02
116           	3.8378589e+01	-2.0865974e-01	-1.4556948e+02	-3.4406148e+01	-1.1116333e+02
117           	3.8383174e+01	-2.0970682e-01	-1.4557402e+02	-3.4403838e+01	-1.1117019e+02
118           	3.8381889e+01	-2.0924791e-01	-1.4557136e+02	-3.4403792e+01	-1.1116757e+02
119           	3.8378468e+01	-2.0446521e-01	-1.4556467e+02	-3.4403869e+01	-1.1116081e+02
120           	3.8377995e+01	-2.0543309e-01	-1.4556299e+02	-3.4403499e+01	-1.1115949e+02
121           	3.8381358e+01	-2.0598098e-01	-1.4556643e+02	-3.4401857e+01	-1.1116457e+02
122           	3.8382800e+01	-2.0552150e-01	-1.4556706e+02	-3.4400729e+01	-1.1116633e+02
123           	3.8387437e+01	-2.0559044e-01	-1.4557107e+02	-3.4398095e+01	-1.1117297e+02
124           	3.8390654e+01	-2.0608705e-01	-1.4557397e+02	-3.4396334e+01	-1.1117764e+02
125           	3.8391742e+01	-2.0598218e-01	-1.4557416e+02	-3.4395336e+01	-1.1117882e+02
126           	3.8391650e+01	-2.0552396e-01	-1.4557235e+02	-3.4394523e+01	-1.1117782e+02
127           	3.8388248e+01	-2.0403902e-01	-1.4556726e+02	-3.4395382e+01	-1.1117188e+02
128           	3.8390835e+01	-2.0347922e-01	-1.4556841e+02	-3.4393371e+01	-1.1117504e+02
129           	3.8390730e+01	-1.9916800e-01	-1.4556645e+02	-3.4392495e+01	-1.1117396e+02
130           	3.8394837e+01	-2.0162680e-01	-1.4557120e+02	-3.4390762e+01	-1.1118044e+02
131           	3.8397423e+01	-2.0292367e-01	-1.4557333e+02	-3.4389243e+01	-1.1118409e+02
132           	3.8400406e+01	-2.0321178e-01	-1.4557553e+02	-3.4387361e+01	-1.1118817e+02
133           	3.8400682e+01	-2.0279709e-01	-1.4557498e+02	-3.4386808e+01	-1.1118817e+02
134           	3.8396675e+01	-1.9922499e-01	-1.4556796e+02	-3.4387305e+01	-1.1118065e+02
135           	3.8400277e+01	-1.9968094e-01	-1.4557227e+02	-3.4385860e+01	-1.1118641e+02
136           	3.8399114e+01	-1.9982102e-01	-1.4557031e+02	-3.4386043e+01	-1.1118427e+02
137           	3.8401772e+01	-1.9956010e-01	-1.4557167e+02	-3.4384061e+01	-1.1118761e+02
138           	3.8405598e+01	-1.9963361e-01	-1.4557486e+02	-3.4381834e+01	-1.1119303e+02
139           	3.8403654e+01	-1.9491011e-01	-1.4556911e+02	-3.4380901e+01	-1.1118821e+02
140           	3.8406297e+01	-1.9766645e-01	-1.4557225e+02	-3.4379828e+01	-1.1119242e+02
141           	3.8407568e+01	-1.9882739e-01	-1.4557467e+02	-3.4379767e+01	-1.1119490e+02
142           	3.8409188e+01	-1.9824209e-01	-1.4557537e+02	-3.4378498e+01	-1.1119687e+02
143           	3.8410435e+01	-1.9626972e-01	-1.4557519e+02	-3.4377160e+01	-1.1119803e+02
144           	3.8413559e+01	-1.9644511e-01	-1.4557725e+02	-3.4375069e+01	-1.1120219e+02
145           	3.8415290e+01	-1.9694579e-01	-1.4557773e+02	-3.4373577e+01	-1.1120416e+02
146           	3.8415257e+01	-1.9681015e-01	-1.4557623e+02	-3.4372858e+01	-1.1120337e+02
147           	3.8412918e+01	-1.9564791e-01	-1.4557257e+02	-3.4373365e+01	-1.1119920e+02
148           	3.8415333e+01	-1.9546239e-01	-1.4557484e+02	-3.4372086e+01	-1.1120275e+02
149           	3.8416137e+01	-1.9201616e-01	-1.4557360e+02	-3.4370661e+01	-1.1120294e+02
150           	3.8417760e+01	-1.9472291e-01	-1.4557558e+02	-3.4370030e+01	-1.1120555e+02
151           	3.8414985e+01	-1.9360400e-01	-1.4557062e+02	-3.4370325e+01	-1.1120029e+02
152           	3.8418417e+01	-1.9384432e-01	-1.4557361e+02	-3.4368388e+01	-1.1120522e+02
153           	3.8422865e+01	-1.9362266e-01	-1.4557770e+02	-3.4365986e+01	-1.1121172e+02
154           	3.8423710e+01	-1.9347439e-01	-1.4557711e+02	-3.4364844e+01	-1.1121226e+02
155           	3.8423239e+01	-1.9320559e-01	-1.4557467e+02	-3.4364094e+01	-1.1121057e+02
156           	3.8424018e+01	-1.9300094e-01	-1.4557539e+02	-3.4363678e+01	-1.1121171e+02
157           	3.8427140e+01	-1.9353833e-01	-1.4557948e+02	-3.4362601e+01	-1.1121688e+02
158           	3.8429308e+01	-1.9345268e-01	-1.4558075e+02	-3.4361066e+01	-1.1121968e+02
159           	3.8428815e+01	-1.9244648e-01	-1.4557793e+02	-3.4360149e+01	-1.1121778e+02
160           	3.8426023e+01	-1.8742085e-01	-1.4557086e+02	-3.4359408e+01	-1.1121145e+02
161           	3.8429532e+01	-1.9055492e-01	-1.4557525e+02	-3.4358092e+01	-1.1121716e+02
162           	3.8430174e+01	-1.9152174e-01	-1.4557703e+02	-3.4358339e+01	-1.1121869e+02
163           	3.8430766e+01	-1.9136543e-01	-1.4557703e+02	-3.4357751e+01	-1.1121928e+02
164           	3.8431834e+01	-1.9067893e-01	-1.4557620e+02	-3.4356265e+01	-1.1121993e+02
165           	3.8435634e+01	-1.9062997e-01	-1.4557748e+02	-3.4353108e+01	-1.1122438e+02
166           	3.8435726e+01	-1.8998688e-01	-1.4557666e+02	-3.4352606e+01	-1.1122406e+02
167           	3.8435954e+01	-1.8863930e-01	-1.4557581e+02	-3.4351949e+01	-1.1122386e+02
168           	3.8437754e+01	-1.8828903e-01	-1.4557673e+02	-3.4350609e+01	-1.1122612e+02
169           	3.8436508e+01	-1.8793583e-01	-1.4557342e+02	-3.4350200e+01	-1.1122322e+02
170           	3.8438497e+01	-1.8566274e-01	-1.4557390e+02	-3.4348454e+01	-1.1122545e+02
171           	3.8441204e+01	-1.8835612e-01	-1.4557651e+02	-3.4347049e+01	-1.1122946e+02
172           	3.8441298e+01	-1.8766683e-01	-1.4557610e+02	-3.4346751e+01	-1.1122935e+02
173           	3.8441105e+01	-1.8680745e-01	-1.4557398e+02	-3.4345886e+01	-1.1122810e+02
174           	3.8442250e+01	-1.8699730e-01	-1.4557350e+02	-3.4344501e+01	-1.1122900e+02
175           	3.8444139e+01	-1.8620130e-01	-1.4557445e+02	-3.4343087e+01	-1.1123136e+02
176           	3.8446211e+01	-1.8731562e-01	-1.4557644e+02	-3.4342010e+01	-1.1123443e+02
177           	3.8443578e+01	-1.8710988e-01	-1.4557233e+02	-3.4342587e+01	-1.1122974e+02
178           	3.8445202e+01	-1.8632641e-01	-1.4557253e+02	-3.4341062e+01	-1.1123147e+02
179           	3.8449026e+01	-1.8564024e-01	-1.4557420e+02	-3.4338073e+01	-1.1123613e+02
180           	3.8451369e+01	-1.8579202e-01	-1.4557460e+02	-3.4335929e+01	-1.1123867e+02
181           	3.8451964e+01	-1.8286042e-01	-1.4557346e+02	-3.4334768e+01	-1.1123870e+02
182           	3.8453127e+01	-1.8546677e-01	-1.4557449e+02	-3.4334119e+01	-1.1124037e+02
183           	3.8453270e+01	-1.8615589e-01	-1.4557373e+02	-3.4333595e+01	-1.1124013e+02
184           	3.8451367e+01	-1.8494646e-01	-1.4556941e+02	-3.4333340e+01	-1.1123607e+02
185           	3.8453601e+01	-1.8484892e-01	-1.4557075e+02	-3.4331776e+01	-1.1123898e+02
186           	3.8452437e+01	-1.8411075e-01	-1.4556867e+02	-3.4331900e+01	-1.1123677e+02
187           	3.8456367e+01	-1.8465992e-01	-1.4557168e+02	-3.4329470e+01	-1.1124220e+02
188           	3.8457997e+01	-1.8476963e-01	-1.4557185e+02	-3.4327930e+01	-1.1124392e+02
189           	3.8461093e+01	-1.8524081e-01	-1.4557339e+02	-3.4325603e+01	-1.1124779e+02
190           	3.8461634e+01	-1.8529700e-01	-1.4557236e+02	-3.4324545e+01	-1.1124781e+02
191           	3.8462060e+01	-1.8487798e-01	-1.4557143e+02	-3.4323655e+01	-1.1124778e+02
192           	3.8458761e+01	-1.8081786e-01	-1.4556469e+02	-3.4323586e+01	-1.1124111e+02
193           	3.8462541e+01	-1.8412156e-01	-1.4556907e+02	-3.4321994e+01	-1.1124708e+02
194           	3.8464147e+01	-1.8563074e-01	-1.4557172e+02	-3.4321715e+01	-1.1125001e+02
195           	3.8465647e+01	-1.8499587e-01	-1.4557126e+02	-3.4319982e+01	-1.1125128e+02
196           	3.8469506e+01	-1.8512934e-01	-1.4557371e+02	-3.4317347e+01	-1.1125636e+02
197           	3.8470477e+01	-1.8485872e-01	-1.4557190e+02	-3.4315474e+01	-1.1125643e+02
198           	3.8466639e+01	-1.8391693e-01	-1.4556548e+02	-3.4316099e+01	-1.1124938e+02
199           	3.8466609e+01	-1.8373208e-01	-1.4556418e+02	-3.4315482e+01	-1.1124870e+02
200           	3.8472569e+01	-1.8494448e-01	-1.4557165e+02	-3.4313259e+01	-1.1125840e+02
201           	3.8474521e+01	-1.8515216e-01	-1.4557260e+02	-3.4311778e+01	-1.1126082e+02
202           	3.8471178e+01	-1.8334201e-01	-1.4556527e+02	-3.4311456e+01	-1.1125381e+02
203           	3.8466019e+01	-1.7872777e-01	-1.4555599e+02	-3.4311975e+01	-1.1124401e+02
204           	3.8466604e+01	-1.8241474e-01	-1.4555807e+02	-3.4312431e+01	-1.1124564e+02
205           	3.8472575e+01	-1.8420363e-01	-1.4556510e+02	-3.4309975e+01	-1.1125513e+02
206           	3.8476364e+01	-1.8430453e-01	-1.4556754e+02	-3.4307403e+01	-1.1126013e+02
207           	3.8479536e+01	-1.8445156e-01	-1.4557018e+02	-3.4305554e+01	-1.1126463e+02
208           	3.8481434e+01	-1.8460765e-01	-1.4557084e+02	-3.4303984e+01	-1.1126685e+02
209           	3.8480546e+01	-1.8425548e-01	-1.4556856e+02	-3.4303736e+01	-1.1126483e+02
210           	3.8477003e+01	-1.8312447e-01	-1.4556366e+02	-3.4304826e+01	-1.1125883e+02
211           	3.8479223e+01	-1.8384816e-01	-1.4556605e+02	-3.4303802e+01	-1.1126225e+02
212           	3.8479003e+01	-1.8429562e-01	-1.4556571e+02	-3.4303850e+01	-1.1126186e+02
213           	3.8477245e+01	-1.7983983e-01	-1.4556144e+02	-3.4303474e+01	-1.1125796e+02
214           	3.8476743e+01	-1.8102355e-01	-1.4556011e+02	-3.4303312e+01	-1.1125680e+02
215           	3.8481661e+01	-1.8278517e-01	-1.4556644e+02	-3.4301560e+01	-1.1126488e+02
216           	3.8483454e+01	-1.8336648e-01	-1.4556874e+02	-3.4300915e+01	-1.1126782e+02
217           	3.8483905e+01	-1.8322771e-01	-1.4556878e+02	-3.4300485e+01	-1.1126829e+02
218           	3.8484336e+01	-1.8283237e-01	-1.4556893e+02	-3.4300129e+01	-1.1126880e+02
219           	3.8482567e+01	-1.8265955e-01	-1.4556612e+02	-3.4300496e+01	-1.1126563e+02
220           	3.8480542e+01	-1.8259460e-01	-1.4556436e+02	-3.4301637e+01	-1.1126272e+02
221           	3.8482560e+01	-1.8271296e-01	-1.4556717e+02	-3.4301024e+01	-1.1126614e+02
222           	3.8484769e+01	-1.8204742e-01	-1.4557037e+02	-3.4300417e+01	-1.1126996e+02
223           	3.8484052e+01	-1.7937615e-01	-1.4556929e+02	-3.4300595e+01	-1.1126870e+02
224           	3.8481718e+01	-1.8203054e-01	-1.4556689e+02	-3.4301729e+01	-1.1126516e+02
225           	3.8480939e+01	-1.8245320e-01	-1.4556657e+02	-3.4302347e+01	-1.1126423e+02
226           	3.8482287e+01	-1.8154628e-01	-1.4556989e+02	-3.4302659e+01	-1.1126723e+02
227           	3.8483700e+01	-1.8131468e-01	-1.4557254e+02	-3.4302572e+01	-1.1126997e+02
228           	3.8483885e+01	-1.8156474e-01	-1.4557326e+02	-3.4302745e+01	-1.1127052e+02
229           	3.8483213e+01	-1.8166593e-01	-1.4557277e+02	-3.4303171e+01	-1.1126960e+02
230           	3.8482201e+01	-1.8200562e-01	-1.4557217e+02	-3.4303883e+01	-1.1126828e+02
231           	3.8484021e+01	-1.8232268e-01	-1.4557624e+02	-3.4304098e+01	-1.1127214e+02
232           	3.8485521e+01	-1.8151306e-01	-1.4557866e+02	-3.4303811e+01	-1.1127485e+02
233           	3.8483773e+01	-1.8121463e-01	-1.4557742e+02	-3.4304936e+01	-1.1127248e+02
234           	3.8480814e+01	-1.7705519e-01	-1.4557297e+02	-3.4305669e+01	-1.1126730e+02
235           	3.8478914e+01	-1.7836680e-01	-1.4557292e+02	-3.4307547e+01	-1.1126538e+02
236           	3.8484306e+01	-1.8072033e-01	-1.4558239e+02	-3.4306890e+01	-1.1127550e+02
237           	3.8486988e+01	-1.8148876e-01	-1.4558726e+02	-3.4306641e+01	-1.1128062e+02
238           	3.8484103e+01	-1.8107285e-01	-1.4558416e+02	-3.4307975e+01	-1.1127618e+02
239           	3.8482973e+01	-1.8062039e-01	-1.4558228e+02	-3.4308166e+01	-1.1127411e+02
240           	3.8481122e+01	-1.7958057e-01	-1.4558118e+02	-3.4309467e+01	-1.1127171e+02
241           	3.8480869e+01	-1.7964707e-01	-1.4558237e+02	-3.4310315e+01	-1.1127205e+02
242           	3.8479504e+01	-1.7956663e-01	-1.4558250e+02	-3.4311746e+01	-1.1127075e+02
243           	3.8481825e+01	-1.7948325e-01	-1.4558615e+02	-3.4311252e+01	-1.1127490e+02
244           	3.8482040e+01	-1.7642555e-01	-1.4558642e+02	-3.4311168e+01	-1.1127525e+02
245           	3.8481250e+01	-1.7788243e-01	-1.4558685e+02	-3.4312173e+01	-1.1127467e+02
246           	3.8481031e+01	-1.7814826e-01	-1.4558700e+02	-3.4312468e+01	-1.1127453e+02
247           	3.8481621e+01	-1.7904479e-01	-1.4558847e+02	-3.4312615e+01	-1.1127586e+02
248           	3.8480087e+01	-1.7882581e-01	-1.4558626e+02	-3.4313041e+01	-1.1127322e+02
249           	3.8478223e+01	-1.7824729e-01	-1.4558519e+02	-3.4314373e+01	-1.1127082e+02
250           	3.8480001e+01	-1.7796516e-01	-1.4558811e+02	-3.4314055e+01	-1.1127406e+02
251           	3.8480897e+01	-1.7809236e-01	-1.4558990e+02	-3.4314055e+01	-1.1127585e+02
252           	3.8482233e+01	-1.7831365e-01	-1.4559248e+02	-3.4314008e+01	-1.1127847e+02
253           	3.8481935e+01	-1.7763418e-01	-1.4559081e+02	-3.4313470e+01	-1.1127734e+02
254           	3.8483963e+01	-1.7778721e-01	-1.4559321e+02	-3.4312641e+01	-1.1128057e+02
255           	3.8482551e+01	-1.7429133e-01	-1.4559099e+02	-3.4312942e+01	-1.1127804e+02
256           	3.8484289e+01	-1.7716541e-01	-1.4559450e+02	-3.4312960e+01	-1.1128154e+02
257           	3.8486271e+01	-1.7879957e-01	-1.4559817e+02	-3.4312815e+01	-1.1128536e+02
258           	3.8484601e+01	-1.7803675e-01	-1.4559496e+02	-3.4312880e+01	-1.1128208e+02
259           	3.8483734e+01	-1.7707316e-01	-1.4559237e+02	-3.4312450e+01	-1.1127992e+02
260           	3.8482190e+01	-1.7614514e-01	-1.4558928e+02	-3.4312452e+01	-1.1127683e+02
261           	3.8483067e+01	-1.7651265e-01	-1.4559048e+02	-3.4312175e+01	-1.1127831e+02
262           	3.8487689e+01	-1.7734240e-01	-1.4559621e+02	-3.4310417e+01	-1.1128580e+02
263           	3.8490352e+01	-1.7796312e-01	-1.4559989e+02	-3.4309593e+01	-1.1129030e+02
264           	3.8489070e+01	-1.7744623e-01	-1.4559712e+02	-3.4309489e+01	-1.1128763e+02
265           	3.8483075e+01	-1.7267019e-01	-1.4558795e+02	-3.4310897e+01	-1.1127705e+02
266           	3.8482311e+01	-1.7467935e-01	-1.4558860e+02	-3.4311992e+01	-1.1127661e+02
267           	3.8484309e+01	-1.7586523e-01	-1.4559132e+02	-3.4311351e+01	-1.1127997e+02
268           	3.8489031e+01	-1.7604436e-01	-1.4559583e+02	-3.4308886e+01	-1.1128695e+02
269           	3.8489178e+01	-1.7584262e-01	-1.4559426e+02	-3.4307955e+01	-1.1128631e+02
270           	3.8491399e+01	-1.7656564e-01	-1.4559564e+02	-3.4306423e+01	-1.1128922e+02
271           	3.8492194e+01	-1.7648577e-01	-1.4559620e+02	-3.4305908e+01	-1.1129030e+02
272           	3.8493310e+01	-1.7641901e-01	-1.4559670e+02	-3.4305038e+01	-1.1129166e+02
273           	3.8491602e+01	-1.7640683e-01	-1.4559365e+02	-3.4305222e+01	-1.1128843e+02
274           	3.8490419e+01	-1.7551434e-01	-1.4559282e+02	-3.4305990e+01	-1.1128683e+02
275           	3.8491694e+01	-1.7500969e-01	-1.4559344e+02	-3.4305024e+01	-1.1128841e+02
276           	3.8492591e+01	-1.7231804e-01	-1.4559243e+02	-3.4303623e+01	-1.1128880e+02
277           	3.8495441e+01	-1.7557038e-01	-1.4559603e+02	-3.4302572e+01	-1.1129345e+02
278           	3.8494632e+01	-1.7640048e-01	-1.4559512e+02	-3.4302929e+01	-1.1129219e+02
279           	3.8495650e+01	-1.7630729e-01	-1.4559674e+02	-3.4302720e+01	-1.1129402e+02
280           	3.8494145e+01	-1.7527046e-01	-1.4559349e+02	-3.4302599e+01	-1.1129089e+02
281           	3.8494152e+01	-1.7468876e-01	-1.4559180e+02	-3.4301746e+01	-1.1129005e+02
282           	3.8497999e+01	-1.7555013e-01	-1.4559547e+02	-3.4299735e+01	-1.1129573e+02
283           	3.8495704e+01	-1.7451359e-01	-1.4559133e+02	-3.4299960e+01	-1.1129137e+02
284           	3.8494137e+01	-1.7496456e-01	-1.4559015e+02	-3.4300938e+01	-1.1128921e+02
285           	3.8492316e+01	-1.7490397e-01	-1.4558899e+02	-3.4302177e+01	-1.1128681e+02
286           	3.8496394e+01	-1.7572669e-01	-1.4559369e+02	-3.4300449e+01	-1.1129324e+02
287           	3.8496910e+01	-1.7254925e-01	-1.4559131e+02	-3.4298743e+01	-1.1129256e+02
288           	3.8501172e+01	-1.7563780e-01	-1.4559581e+02	-3.4296734e+01	-1.1129908e+02
289           	3.8503619e+01	-1.7683573e-01	-1.4559857e+02	-3.4295668e+01	-1.1130291e+02
290           	3.8500544e+01	-1.7607799e-01	-1.4559403e+02	-3.4296472e+01	-1.1129756e+02
291           	3.8500838e+01	-1.7554282e-01	-1.4559361e+02	-3.4295966e+01	-1.1129764e+02
292           	3.8504126e+01	-1.7614634e-01	-1.4559826e+02	-3.4295006e+01	-1.1130326e+02
293           	3.8504400e+01	-1.7629815e-01	-1.4559819e+02	-3.4294693e+01	-1.1130349e+02
294           	3.8500041e+01	-1.7564360e-01	-1.4559187e+02	-3.4295897e+01	-1.1129598e+02
295           	3.8498496e+01	-1.7506898e-01	-1.4558925e+02	-3.4296128e+01	-1.1129312e+02
296           	3.8499463e+01	-1.7559728e-01	-1.4559022e+02	-3.4295649e+01	-1.1129457e+02
297           	3.8499869e+01	-1.7460406e-01	-1.4558980e+02	-3.4295032e+01	-1.1129477e+02
298           	3.8502104e+01	-1.7143065e-01	-1.4559085e+02	-3.4293322e+01	-1.1129753e+02
299           	3.8503899e+01	-1.7461566e-01	-1.4559438e+02	-3.4293292e+01	-1.1130109e+02
300           	3.8502538e+01	-1.7589554e-01	-1.4559205e+02	-3.4293489e+01	-1.1129856e+02
301           	3.8505335e+01	-1.7658199e-01	-1.4559567e+02	-3.4292499e+01	-1.1130317e+02
302           	3.8507086e+01	-1.7585960e-01	-1.4559804e+02	-3.4291936e+01	-1.1130611e+02
303           	3.8503820e+01	-1.7435153e-01	-1.4559312e+02	-3.4292742e+01	-1.1130038e+02
304           	3.8499908e+01	-1.7336109e-01	-1.4558737e+02	-3.4293778e+01	-1.1129359e+02
305           	3.8501026e+01	-1.7420921e-01	-1.4558859e+02	-3.4293268e+01	-1.1129532e+02
306           	3.8505026e+01	-1.7514003e-01	-1.4559419e+02	-3.4292071e+01	-1.1130212e+02
307           	3.8507319e+01	-1.7481752e-01	-1.4559603e+02	-3.4290695e+01	-1.1130533e+02
308           	3.8505250e+01	-1.7157288e-01	-1.4559161e+02	-3.4290557e+01	-1.1130106e+02
309           	3.8504745e+01	-1.7377293e-01	-1.4559125e+02	-3.4290881e+01	-1.1130037e+02
310           	3.8507246e+01	-1.7529218e-01	-1.4559497e+02	-3.4290241e+01	-1.1130473e+02
311           	3.8507097e+01	-1.7463697e-01	-1.4559510e+02	-3.4290452e+01	-1.1130465e+02
312           	3.8508701e+01	-1.7507556e-01	-1.4559771e+02	-3.4290152e+01	-1.1130755e+02
313           	3.8506597e+01	-1.7462063e-01	-1.4559454e+02	-3.4290674e+01	-1.1130387e+02
314           	3.8504847e+01	-1.7386581e-01	-1.4559109e+02	-3.4290700e+01	-1.1130039e+02
315           	3.8504862e+01	-1.7398017e-01	-1.4559040e+02	-3.4290338e+01	-1.1130006e+02
316           	3.8508530e+01	-1.7497568e-01	-1.4559484e+02	-3.4288892e+01	-1.1130595e+02
317           	3.8507800e+01	-1.7318064e-01	-1.4559265e+02	-3.4288525e+01	-1.1130413e+02
318           	3.8509511e+01	-1.7437763e-01	-1.4559536e+02	-3.4288168e+01	-1.1130719e+02
319           	3.8505480e+01	-1.7121148e-01	-1.4559061e+02	-3.4289826e+01	-1.1130079e+02
320           	3.8504378e+01	-1.7239403e-01	-1.4558930e+02	-3.4290274e+01	-1.1129903e+02
321           	3.8507009e+01	-1.7354769e-01	-1.4559214e+02	-3.4289064e+01	-1.1130308e+02
322           	3.8509256e+01	-1.7443777e-01	-1.4559449e+02	-3.4287988e+01	-1.1130650e+02
323           	3.8509846e+01	-1.7428896e-01	-1.4559444e+02	-3.4287375e+01	-1.1130707e+02
324           	3.8512137e+01	-1.7471567e-01	-1.4559660e+02	-3.4286163e+01	-1.1131044e+02
325           	3.8512903e+01	-1.7481322e-01	-1.4559739e+02	-3.4285794e+01	-1.1131160e+02
326           	3.8512469e+01	-1.7446077e-01	-1.4559662e+02	-3.4285842e+01	-1.1131078e+02
327           	3.8509183e+01	-1.7332859e-01	-1.4559142e+02	-3.4286526e+01	-1.1130489e+02
328           	3.8508559e+01	-1.7319933e-01	-1.4558933e+02	-3.4286108e+01	-1.1130323e+02
329           	3.8505598e+01	-1.6942162e-01	-1.4558474e+02	-3.4286772e+01	-1.1129797e+02
330           	3.8510537e+01	-1.7299000e-01	-1.4559390e+02	-3.4286413e+01	-1.1130749e+02
331           	3.8515340e+01	-1.7462793e-01	-1.4559993e+02	-3.4284626e+01	-1.1131530e+02
332           	3.8513128e+01	-1.7433780e-01	-1.4559562e+02	-3.4284682e+01	-1.1131094e+02