# Force coefficients
# liftDir     : (0.0000000e+00 1.0000000e+00 0.0000000e+00)
# dragDir     : (0.0000000e+00 0.0000000e+00 1.0000000e+00)
# pitchAxis   : (1.0000000e+00 0.0000000e+00 0.0000000e+00)
# magUInf     : 1.0000000e+02
# lRef        : 1.5200000e-01
# Aref        : 1.8000000e-02
# CofR        : (0.0000000e+00 0.0000000e+00 0.0000000e+00)
# Time        	Cm            	Cd            	Cl            	Cl(f)         	Cl(r)         
1             	0.0000000e+00	0.0000000e+00	0.0000000e+00	0.0000000e+00	0.0000000e+00
